
                                 *****************
                                 * O   R   C   A *
                                 *****************

           --- An Ab Initio, DFT and Semiempirical electronic structure package ---

                  #######################################################
                  #                        -***-                        #
                  #  Department of molecular theory and spectroscopy    #
                  #              Directorship: Frank Neese              #
                  # Max Planck Institute for Chemical Energy Conversion #
                  #                  D-45470 Muelheim/Ruhr              #
                  #                       Germany                       #
                  #                                                     #
                  #                  All rights reserved                #
                  #                        -***-                        #
                  #######################################################


                         Program Version 4.0.1.2 - RELEASE -


 With contributions from (in alphabetic order):
   Daniel Aravena         : Magnetic Properties
   Michael Atanasov       : Ab Initio Ligand Field Theory
   Ute Becker             : Parallelization
   Martin Brehm           : Molecular dynamics
   Dmytro Bykov           : SCF Hessian
   Vijay G. Chilkuri      : MRCI spin determinant printing
   Dipayan Datta          : RHF DLPNO-CCSD density
   Achintya Kumar Dutta   : EOM-CC, STEOM-CC
   Dmitry Ganyushin       : Spin-Orbit,Spin-Spin,Magnetic field MRCI
   Yang Guo               : DLPNO-NEVPT2, CIM, IAO-localization
   Andreas Hansen         : Spin unrestricted coupled pair/coupled cluster methods
   Lee Huntington         : MR-EOM, pCC
   Robert Izsak           : Overlap fitted RIJCOSX, COSX-SCS-MP3, EOM
   Christian Kollmar      : KDIIS, OOCD, Brueckner-CCSD(T), CCSD density
   Simone Kossmann        : Meta GGA functionals, TD-DFT gradient, OOMP2, MP2 Hessian
   Martin Krupicka        : AUTO-CI
   Dagmar Lenk            : GEPOL surface
   Dimitrios Liakos       : Extrapolation schemes; parallel MDCI
   Dimitrios Manganas     : ROCIS; embedding schemes
   Dimitrios Pantazis     : SARC Basis sets
   Taras Petrenko         : DFT Hessian,TD-DFT gradient, ASA, ECA, R-Raman, ABS, FL, XAS/XES, NRVS
   Peter Pinski           : DLPNO-MP2
   Christoph Reimann      : Effective Core Potentials
   Marius Retegan         : Local ZFS, SOC
   Christoph Riplinger    : Optimizer, TS searches, QM/MM, DLPNO-CCSD(T), (RO)-DLPNO pert. Triples
   Tobias Risthaus        : Range-separated hybrids, TD-DFT gradient, RPA, STAB
   Michael Roemelt        : Restricted open shell CIS
   Masaaki Saitow         : Open-shell DLPNO
   Barbara Sandhoefer     : DKH picture change effects
   Kantharuban Sivalingam : CASSCF convergence, NEVPT2, FIC-MRCI
   Georgi Stoychev        : AutoAux
   Boris Wezisla          : Elementary symmetry handling
   Frank Wennmohs         : Technical directorship


 We gratefully acknowledge several colleagues who have allowed us to
 interface, adapt or use parts of their codes:
   Stefan Grimme, W. Hujo, H. Kruse,             : VdW corrections, initial TS optimization,
                  C. Bannwarth                     DFT functionals, gCP, sTDA/sTD-DF
   Ed Valeev                                     : LibInt (2-el integral package), F12 methods
   Garnet Chan, S. Sharma, J. Yang, R. Olivares  : DMRG
   Ulf Ekstrom                                   : XCFun DFT Library
   Mihaly Kallay                                 : mrcc  (arbitrary order and MRCC methods)
   Andreas Klamt, Michael Diedenhofen            : otool_cosmo (COSMO solvation model)
   Jiri Pittner, Ondrej Demel                    : Mk-CCSD
   Frank Weinhold                                : gennbo (NPA and NBO analysis)
   Christopher J. Cramer and Donald G. Truhlar   : smd solvation model


 Your calculation uses the libint2 library for the computation of 2-el integrals
 For citations please refer to: http://libint.valeyev.net

 This ORCA versions uses:
   CBLAS   interface :  Fast vector & matrix operations
   LAPACKE interface :  Fast linear algebra routines
   SCALAPACK package :  Parallel linear algebra routines




*****************************************
The coordinations will be read from file: HCN.xyz
*****************************************


Your calculation utilizes the basis: def2-TZVP
   F. Weigend and R. Ahlrichs, Phys. Chem. Chem. Phys. 7, 3297 (2005).

Your calculation utilizes the auxiliary basis: def2/J
   F. Weigend, Phys. Chem. Chem. Phys. 8, 1057 (2006).

================================================================================
                                        WARNINGS
                       Please study these warnings very carefully!
================================================================================

Warning: TCutStore was < 0. Adjusted to Thresh (uncritical)

WARNING: Geometry Optimization
  ===> : Switching off AutoStart
         For restart on a previous wavefunction, please use MOREAD

INFO   : the flag for use of LIBINT has been found!

================================================================================
                                       INPUT FILE
================================================================================
NAME = opt.inp
|  1> # avogadro generated ORCA input file 
|  2> # Basic Mode
|  3> # 
|  4> ! PBE OPT def2-TZVP
|  5> 
|  6> * xyzfile 0 1 HCN.xyz
|  7> 
|  8> 
|  9>                          ****END OF INPUT****
================================================================================

                       *****************************
                       * Geometry Optimization Run *
                       *****************************

Geometry optimization settings:
Update method            Update   .... BFGS
Choice of coordinates    CoordSys .... Redundant Internals
Initial Hessian          InHess   .... Almoef's Model

Convergence Tolerances:
Energy Change            TolE     ....  5.0000e-06 Eh
Max. Gradient            TolMAXG  ....  3.0000e-04 Eh/bohr
RMS Gradient             TolRMSG  ....  1.0000e-04 Eh/bohr
Max. Displacement        TolMAXD  ....  4.0000e-03 bohr
RMS Displacement         TolRMSD  ....  2.0000e-03 bohr

------------------------------------------------------------------------------
                        ORCA OPTIMIZATION COORDINATE SETUP
------------------------------------------------------------------------------

The optimization will be done in new redundant internal coordinates
Making redundant internal coordinates   ...  (new redundants) done
Evaluating the initial hessian          ...  (Almloef) done
Evaluating the coordinates              ...  done
Calculating the B-matrix                .... done
Calculating the G-matrix                .... done
Diagonalizing the G-matrix              .... done
The first mode is                       ....    0
The number of degrees of freedom        ....    4

    -----------------------------------------------------------------
                    Redundant Internal Coordinates


    -----------------------------------------------------------------
         Definition                    Initial Value    Approx d2E/dq
    -----------------------------------------------------------------
      1. B(C   1,N   0)                  1.7694         0.138853   
      2. B(H   2,C   1)                  1.7582         0.030923   
      3. L(N   0,C   1,H   2, 2)       182.5237         0.196023   
      4. L(N   0,C   1,H   2, 1)       180.9051         0.196023   
    -----------------------------------------------------------------

Number of atoms                         .... 3
Number of degrees of freedom            .... 4

         *************************************************************
         *                GEOMETRY OPTIMIZATION CYCLE   1            *
         *************************************************************
---------------------------------
CARTESIAN COORDINATES (ANGSTROEM)
---------------------------------
  N     -3.262140    1.105170   -1.444980
  C     -1.564890    1.196890   -0.953320
  H      0.115910    1.213600   -0.437510

----------------------------
CARTESIAN COORDINATES (A.U.)
----------------------------
  NO LB      ZA    FRAG     MASS         X           Y           Z
   0 N     7.0000    0    14.007   -6.164551    2.088469   -2.730616
   1 C     6.0000    0    12.011   -2.957214    2.261794   -1.801514
   2 H     1.0000    0     1.008    0.219038    2.293372   -0.826774

--------------------------------
INTERNAL COORDINATES (ANGSTROEM)
--------------------------------
 N      0   0   0     0.000000000000     0.00000000     0.00000000
 C      1   0   0     1.769406588803     0.00000000     0.00000000
 H      2   1   0     1.758245665486   177.41005992     0.00000000

---------------------------
INTERNAL COORDINATES (A.U.)
---------------------------
 N      0   0   0     0.000000000000     0.00000000     0.00000000
 C      1   0   0     3.343693872394     0.00000000     0.00000000
 H      2   1   0     3.322602783922   177.41005992     0.00000000

---------------------
BASIS SET INFORMATION
---------------------
There are 3 groups of distinct atoms

 Group   1 Type N   : 11s6p2d1f contracted to 5s3p2d1f pattern {62111/411/11/1}
 Group   2 Type C   : 11s6p2d1f contracted to 5s3p2d1f pattern {62111/411/11/1}
 Group   3 Type H   : 5s1p contracted to 3s1p pattern {311/1}

Atom   0N    basis set group =>   1
Atom   1C    basis set group =>   2
Atom   2H    basis set group =>   3
-------------------------------
AUXILIARY BASIS SET INFORMATION
-------------------------------
There are 3 groups of distinct atoms

 Group   1 Type N   : 12s5p4d2f1g contracted to 6s4p3d1f1g pattern {711111/2111/211/2/1}
 Group   2 Type C   : 12s5p4d2f1g contracted to 6s4p3d1f1g pattern {711111/2111/211/2/1}
 Group   3 Type H   : 5s2p1d contracted to 3s1p1d pattern {311/2/1}

Atom   0N    basis set group =>   1
Atom   1C    basis set group =>   2
Atom   2H    basis set group =>   3
------------------------------------------------------------------------------
                           ORCA GTO INTEGRAL CALCULATION
                           -- RI-GTO INTEGRALS CHOSEN --
------------------------------------------------------------------------------

                         BASIS SET STATISTICS AND STARTUP INFO

Gaussian basis set:
 # of primitive gaussian shells          ...   46
 # of primitive gaussian functions       ...  100
 # of contracted shells                  ...   26
 # of contracted basis functions         ...   68
 Highest angular momentum                ...    3
 Maximum contraction depth               ...    6
Auxiliary gaussian basis set:
 # of primitive gaussian shells          ...   56
 # of primitive gaussian functions       ...  156
 # of contracted shells                  ...   35
 # of contracted aux-basis functions     ...  109
 Highest angular momentum                ...    4
 Maximum contraction depth               ...    7
Ratio of auxiliary to basis functions    ...  1.60
Integral package used                  ... LIBINT
 One Electron integrals                  ... done
 Ordering auxiliary basis shells         ... done
 Integral threshhold             Thresh  ...  2.500e-11
 Primitive cut-off               TCut    ...  2.500e-12
 Pre-screening matrix                    ... done
 Shell pair data                         ... 
 Ordering of the shell pairs             ... done (   0.000 sec) 345 of 351 pairs
 Determination of significant pairs      ... done (   0.000 sec)
 Creation of shell pair data             ... done (   0.000 sec)
 Storage of shell pair data              ... done (   0.002 sec)
 Shell pair data done in (   0.002 sec)
 Computing two index integrals           ... done
 Cholesky decomposition of the V-matrix  ... done


Timings:
 Total evaluation time                   ...   0.183 sec (  0.003 min)
 One electron matrix time                ...   0.007 sec (  0.000 min) =  4.1%
 Schwartz matrix evaluation time         ...   0.147 sec (  0.002 min) = 80.5%
 Two index repulsion integral time       ...   0.002 sec (  0.000 min) =  0.9%
 Cholesky decomposition of V             ...   0.002 sec (  0.000 min) =  0.8%
 Three index repulsion integral time     ...   0.000 sec (  0.000 min) =  0.0%

-------------------------------------------------------------------------------
                                 ORCA SCF
-------------------------------------------------------------------------------

------------
SCF SETTINGS
------------
Hamiltonian:
 Density Functional     Method          .... DFT(GTOs)
 Exchange Functional    Exchange        .... PBE
   PBE kappa parameter   XKappa         ....  0.804000
   PBE mue parameter    XMuePBE         ....  0.219520
 Correlation Functional Correlation     .... PBE
   PBE beta parameter  CBetaPBE         ....  0.066725
 LDA part of GGA corr.  LDAOpt          .... PW91-LDA
 Gradients option       PostSCFGGA      .... off
   NL short-range parameter             ....  6.400000
 RI-approximation to the Coulomb term is turned on
   Number of auxiliary basis functions  .... 109


General Settings:
 Integral files         IntName         .... opt
 Hartree-Fock type      HFTyp           .... RHF
 Total Charge           Charge          ....    0
 Multiplicity           Mult            ....    1
 Number of Electrons    NEL             ....   14
 Basis Dimension        Dim             ....   68
 Nuclear Repulsion      ENuc            ....     15.4170982535 Eh

Convergence Acceleration:
 DIIS                   CNVDIIS         .... on
   Start iteration      DIISMaxIt       ....    12
   Startup error        DIISStart       ....  0.200000
   # of expansion vecs  DIISMaxEq       ....     5
   Bias factor          DIISBfac        ....   1.050
   Max. coefficient     DIISMaxC        ....  10.000
 Newton-Raphson         CNVNR           .... off
 SOSCF                  CNVSOSCF        .... on
   Start iteration      SOSCFMaxIt      ....   150
   Startup grad/error   SOSCFStart      ....  0.003300
 Level Shifting         CNVShift        .... on
   Level shift para.    LevelShift      ....    0.2500
   Turn off err/grad.   ShiftErr        ....    0.0010
 Zerner damping         CNVZerner       .... off
 Static damping         CNVDamp         .... on
   Fraction old density DampFac         ....    0.7000
   Max. Damping (<1)    DampMax         ....    0.9800
   Min. Damping (>=0)   DampMin         ....    0.0000
   Turn off err/grad.   DampErr         ....    0.1000
 Fernandez-Rico         CNVRico         .... off

SCF Procedure:
 Maximum # iterations   MaxIter         ....   125
 SCF integral mode      SCFMode         .... Direct
   Integral package                     .... LIBINT
 Reset frequeny         DirectResetFreq ....    20
 Integral Threshold     Thresh          ....  2.500e-11 Eh
 Primitive CutOff       TCut            ....  2.500e-12 Eh

Convergence Tolerance:
 Convergence Check Mode ConvCheckMode   .... Total+1el-Energy
 Convergence forced     ConvForced      .... 0
 Energy Change          TolE            ....  1.000e-08 Eh
 1-El. energy change                    ....  1.000e-05 Eh
 Orbital Gradient       TolG            ....  1.000e-05
 Orbital Rotation angle TolX            ....  1.000e-05
 DIIS Error             TolErr          ....  5.000e-07


Diagonalization of the overlap matrix:
Smallest eigenvalue                        ... 5.280e-03
Time for diagonalization                   ...    0.002 sec
Threshold for overlap eigenvalues          ... 1.000e-08
Number of eigenvalues below threshold      ... 0
Time for construction of square roots      ...    0.002 sec
Total time needed                          ...    0.003 sec

-------------------
DFT GRID GENERATION
-------------------

General Integration Accuracy     IntAcc      ...  4.340
Radial Grid Type                 RadialGrid  ... Gauss-Chebyshev
Angular Grid (max. acc.)         AngularGrid ... Lebedev-110
Angular grid pruning method      GridPruning ... 3 (G Style)
Weight generation scheme         WeightScheme... Becke
Basis function cutoff            BFCut       ...    1.0000e-11
Integration weight cutoff        WCut        ...    1.0000e-14
Grids for H and He will be reduced by one unit

# of grid points (after initial pruning)     ...   4152 (   0.0 sec)
# of grid points (after weights+screening)   ...   4139 (   0.0 sec)
nearest neighbour list constructed           ...    0.0 sec
Grid point re-assignment to atoms done       ...    0.0 sec
Grid point division into batches done        ...    0.0 sec
Reduced shell lists constructed in    0.0 sec

Total number of grid points                  ...     4139
Total number of batches                      ...       66
Average number of points per batch           ...       62
Average number of grid points per atom       ...     1380
Average number of shells per batch           ...    21.27 (81.80%)
Average number of basis functions per batch  ...    58.31 (85.76%)
Average number of large shells per batch     ...    19.07 (89.68%)
Average number of large basis fcns per batch ...    52.24 (89.58%)
Maximum spatial batch extension              ...  18.36, 25.60, 20.07 au
Average spatial batch extension              ...   5.96,  7.82,  7.48 au

Time for grid setup =    0.033 sec

------------------------------
INITIAL GUESS: MODEL POTENTIAL
------------------------------
Loading Hartree-Fock densities                     ... done
Calculating cut-offs                               ... done
Setting up the integral package                    ... done
Initializing the effective Hamiltonian             ... done
Starting the Coulomb interaction                   ... done (   0.0 sec)
Reading the grid                                   ... done
Mapping shells                                     ... done
Starting the XC term evaluation                    ... done (   0.0 sec)
  promolecular density results
     # of electrons  =     13.999635781
     EX              =    -11.608962782
     EC              =     -0.397733720
     EX+EC           =    -12.006696501
Transforming the Hamiltonian                       ... done (   0.0 sec)
Diagonalizing the Hamiltonian                      ... done (   0.0 sec)
Back transforming the eigenvectors                 ... done (   0.0 sec)
Now organizing SCF variables                       ... done
                      ------------------
                      INITIAL GUESS DONE (   0.2 sec)
                      ------------------
--------------
SCF ITERATIONS
--------------
ITER       Energy         Delta-E        Max-DP      RMS-DP      [F,P]     Damp
               ***  Starting incremental Fock matrix formation  ***
  0    -92.6577186335   0.000000000000 0.14341316  0.00704181  0.4536656 0.7000
  1    -92.8408906347  -0.183172001184 0.02568058  0.00193268  0.1147974 0.7000
                               ***Turning on DIIS***
  2    -92.8534666188  -0.012575984099 0.04726282  0.00251958  0.1620082 0.7000
  3    -92.9134156422  -0.059949023446 0.07314340  0.00392068  0.0517778 0.0000
  4    -92.8373221583   0.076093483903 0.00712149  0.00041507  0.3508750 0.7000
  5    -92.8647037019  -0.027381543533 0.00879224  0.00049795  0.3199144 0.7000
  6    -92.8955203451  -0.030816643196 0.00858298  0.00047294  0.2809933 0.7000
  7    -92.9220337909  -0.026513445798 0.00896162  0.00047129  0.2423807 0.7000
  8    -92.9457145372  -0.023680746348 0.01369637  0.00090059  0.2012354 0.7000
  9    -92.9779482677  -0.032233730512 0.01108059  0.00067971  0.1276785 0.7000
 10    -92.9929823698  -0.015034102028 0.02562537  0.00147918  0.0724657 0.0000
 11    -92.9993355093  -0.006353139593 0.00469796  0.00019584  0.0517336 0.0000
 12    -93.0008705588  -0.001535049431 0.00207110  0.00012584  0.0393715 0.0000
 13    -93.0017122164  -0.000841657601 0.00173939  0.00009685  0.0280047 0.0000
 14    -93.0022044066  -0.000492190236 0.00137940  0.00008031  0.0192307 0.0000
 15    -93.0024710071  -0.000266600469 0.00129741  0.00006747  0.0117208 0.0000
 16    -93.0025935778  -0.000122570685 0.00066714  0.00003908  0.0058995 0.0000
                      *** Initiating the SOSCF procedure ***
                           *** Shutting down DIIS ***
                      *** Re-Reading the Fockian *** 
                      *** Removing any level shift *** 
ITER      Energy       Delta-E        Grad      Rot      Max-DP    RMS-DP
 17    -93.00262280  -0.0000292178  0.000231  0.000231  0.000468  0.000024
               *** Restarting incremental Fock matrix formation ***
 18    -93.00263085  -0.0000080550  0.000792  0.008135  0.004799  0.000239
 19    -93.00212572   0.0005051265  0.010652  0.007488  0.004427  0.000219
 20    -93.00263296  -0.0005072393  0.000400  0.002900  0.001517  0.000060
 21    -93.00262612   0.0000068405  0.001171  0.002164  0.001129  0.000044
 22    -93.00263399  -0.0000078632  0.000008  0.000015  0.000011  0.000001
                 **** Energy Check signals convergence ****
              ***Rediagonalizing the Fockian in SOSCF/NRSCF***

               *****************************************************
               *                     SUCCESS                       *
               *           SCF CONVERGED AFTER  23 CYCLES          *
               *****************************************************

Setting up the final grid:

General Integration Accuracy     IntAcc      ...  4.670
Radial Grid Type                 RadialGrid  ... Gauss-Chebyshev
Angular Grid (max. acc.)         AngularGrid ... Lebedev-302
Angular grid pruning method      GridPruning ... 3 (G Style)
Weight generation scheme         WeightScheme... Becke
Basis function cutoff            BFCut       ...    1.0000e-11
Integration weight cutoff        WCut        ...    1.0000e-14
Grids for H and He will be reduced by one unit

# of grid points (after initial pruning)     ...  15818 (   0.0 sec)
# of grid points (after weights+screening)   ...  15727 (   0.0 sec)
nearest neighbour list constructed           ...    0.0 sec
Grid point re-assignment to atoms done       ...    0.0 sec
Grid point division into batches done        ...    0.1 sec
Reduced shell lists constructed in    0.2 sec

Total number of grid points                  ...    15727
Total number of batches                      ...      247
Average number of points per batch           ...       63
Average number of grid points per atom       ...     5242
Average number of shells per batch           ...    19.06 (73.31%)
Average number of basis functions per batch  ...    51.73 (76.07%)
Average number of large shells per batch     ...    16.88 (88.56%)
Average number of large basis fcns per batch ...    46.12 (89.16%)
Maximum spatial batch extension              ...  17.32, 31.15, 24.37 au
Average spatial batch extension              ...   3.52,  4.38,  4.21 au

Final grid set up in    0.2 sec
Final integration                            ... done (   0.1 sec)
Change in XC energy                          ...     0.000099249
Integrated number of electrons               ...    13.999997524
Previous integrated no of electrons          ...    13.999959550

----------------
TOTAL SCF ENERGY
----------------

Total Energy       :          -93.00253474 Eh           -2530.72763 eV

Components:
Nuclear Repulsion  :           15.41709825 Eh             419.52057 eV
Electronic Energy  :         -108.41963299 Eh           -2950.24820 eV
One Electron Energy:         -155.81214845 Eh           -4239.86411 eV
Two Electron Energy:           47.39251546 Eh            1289.61591 eV

Virial components:
Potential Energy   :         -184.71117131 Eh           -5026.24650 eV
Kinetic Energy     :           91.70863657 Eh            2495.51887 eV
Virial Ratio       :            2.01410879


DFT components:
N(Alpha)           :        6.999998761956 electrons
N(Beta)            :        6.999998761956 electrons
N(Total)           :       13.999997523913 electrons
E(X)               :      -11.585999219547 Eh       
E(C)               :       -0.405234553336 Eh       
E(XC)              :      -11.991233772883 Eh       

---------------
SCF CONVERGENCE
---------------

  Last Energy change         ...   -5.1035e-10  Tolerance :   1.0000e-08
  Last MAX-Density change    ...    4.7039e-06  Tolerance :   1.0000e-07
  Last RMS-Density change    ...    3.0290e-07  Tolerance :   5.0000e-09
  Last Orbital Gradient      ...    5.8595e-06  Tolerance :   1.0000e-05
  Last Orbital Rotation      ...    6.5087e-06  Tolerance :   1.0000e-05

             **** THE GBW FILE WAS UPDATED (opt.gbw) ****
             **** DENSITY FILE WAS UPDATED (opt.scfp.tmp) ****
             **** ENERGY FILE WAS UPDATED (opt.en.tmp) ****
----------------
ORBITAL ENERGIES
----------------

  NO   OCC          E(Eh)            E(eV) 
   0   2.0000     -14.097097      -383.6015 
   1   2.0000     -10.063703      -273.8473 
   2   2.0000      -0.689288       -18.7565 
   3   2.0000      -0.508188       -13.8285 
   4   2.0000      -0.342355        -9.3160 
   5   2.0000      -0.255387        -6.9494 
   6   2.0000      -0.255314        -6.9474 
   7   0.0000      -0.196854        -5.3567 
   8   0.0000      -0.157973        -4.2987 
   9   0.0000      -0.157814        -4.2943 
  10   0.0000       0.015638         0.4255 
  11   0.0000       0.138978         3.7818 
  12   0.0000       0.198606         5.4043 
  13   0.0000       0.202336         5.5059 
  14   0.0000       0.214310         5.8317 
  15   0.0000       0.256446         6.9783 
  16   0.0000       0.346627         9.4322 
  17   0.0000       0.360492         9.8095 
  18   0.0000       0.361807         9.8453 
  19   0.0000       0.556574        15.1452 
  20   0.0000       0.612988        16.6803 
  21   0.0000       0.613003        16.6807 
  22   0.0000       0.619313        16.8524 
  23   0.0000       0.620682        16.8896 
  24   0.0000       0.901616        24.5342 
  25   0.0000       1.023473        27.8501 
  26   0.0000       1.023591        27.8533 
  27   0.0000       1.132594        30.8195 
  28   0.0000       1.134034        30.8586 
  29   0.0000       1.179128        32.0857 
  30   0.0000       1.329696        36.1829 
  31   0.0000       1.353175        36.8218 
  32   0.0000       1.355127        36.8749 
  33   0.0000       1.437378        39.1131 
  34   0.0000       1.437803        39.1246 
  35   0.0000       1.647733        44.8371 
  36   0.0000       1.837519        50.0014 
  37   0.0000       1.918029        52.1922 
  38   0.0000       1.949350        53.0445 
  39   0.0000       1.950037        53.0632 
  40   0.0000       2.243944        61.0608 
  41   0.0000       2.565713        69.8166 
  42   0.0000       2.567396        69.8624 
  43   0.0000       2.576245        70.1032 
  44   0.0000       2.577343        70.1331 
  45   0.0000       2.682716        73.0004 
  46   0.0000       2.701251        73.5048 
  47   0.0000       2.752949        74.9116 
  48   0.0000       2.831039        77.0365 
  49   0.0000       2.831815        77.0576 
  50   0.0000       2.972997        80.8994 
  51   0.0000       2.973495        80.9129 
  52   0.0000       3.137892        85.3864 
  53   0.0000       3.467953        94.3678 
  54   0.0000       3.791983       103.1851 
  55   0.0000       3.792279       103.1931 
  56   0.0000       3.832040       104.2751 
  57   0.0000       3.832387       104.2846 
  58   0.0000       4.053091       110.2902 
  59   0.0000       4.053681       110.3063 
  60   0.0000       4.333612       117.9236 
  61   0.0000       4.334766       117.9550 
  62   0.0000       4.428378       120.5023 
  63   0.0000       4.605936       125.3339 
  64   0.0000       4.606208       125.3413 
  65   0.0000       5.131433       139.6334 
  66   0.0000      21.134175       575.0901 
  67   0.0000      31.047945       844.8575 

                    ********************************
                    * MULLIKEN POPULATION ANALYSIS *
                    ********************************

-----------------------
MULLIKEN ATOMIC CHARGES
-----------------------
   0 N :   -0.136346
   1 C :   -0.080817
   2 H :    0.217163
Sum of atomic charges:    0.0000000

--------------------------------
MULLIKEN REDUCED ORBITAL CHARGES
--------------------------------
  0 N s       :     3.931420  s :     3.931420
      pz      :     1.170070  p :     3.188371
      px      :     0.825286
      py      :     1.193015
      dz2     :     0.002005  d :     0.015727
      dxz     :     0.004429
      dyz     :     0.000310
      dx2y2   :     0.005409
      dxy     :     0.003575
      f0      :     0.000082  f :     0.000828
      f+1     :     0.000148
      f-1     :     0.000005
      f+2     :     0.000171
      f-2     :     0.000037
      f+3     :     0.000219
      f-3     :     0.000165
  1 C s       :     3.703755  s :     3.703755
      pz      :     0.790798  p :     2.352819
      px      :     0.768535
      py      :     0.793487
      dz2     :     0.002803  d :     0.021416
      dxz     :     0.006088
      dyz     :     0.000311
      dx2y2   :     0.008445
      dxy     :     0.003770
      f0      :     0.000283  f :     0.002826
      f+1     :     0.000519
      f-1     :     0.000021
      f+2     :     0.000587
      f-2     :     0.000137
      f+3     :     0.000679
      f-3     :     0.000601
  2 H s       :     0.777701  s :     0.777701
      pz      :     0.000855  p :     0.005136
      px      :     0.003731
      py      :     0.000550


                     *******************************
                     * LOEWDIN POPULATION ANALYSIS *
                     *******************************

----------------------
LOEWDIN ATOMIC CHARGES
----------------------
   0 N :   -0.099646
   1 C :   -0.126579
   2 H :    0.226225

-------------------------------
LOEWDIN REDUCED ORBITAL CHARGES
-------------------------------
  0 N s       :     3.756716  s :     3.756716
      pz      :     1.167600  p :     3.300104
      px      :     0.954123
      py      :     1.178381
      dz2     :     0.005615  d :     0.040750
      dxz     :     0.010109
      dyz     :     0.000418
      dx2y2   :     0.019782
      dxy     :     0.004826
      f0      :     0.000238  f :     0.002076
      f+1     :     0.000325
      f-1     :     0.000007
      f+2     :     0.000465
      f-2     :     0.000052
      f+3     :     0.000762
      f-3     :     0.000227
  1 C s       :     3.535937  s :     3.535937
      pz      :     0.804106  p :     2.493066
      px      :     0.892124
      py      :     0.796836
      dz2     :     0.011695  d :     0.086980
      dxz     :     0.022650
      dyz     :     0.001095
      dx2y2   :     0.038745
      dxy     :     0.012795
      f0      :     0.001179  f :     0.010596
      f+1     :     0.001722
      f-1     :     0.000048
      f+2     :     0.002349
      f-2     :     0.000335
      f+3     :     0.003504
      f-3     :     0.001458
  2 H s       :     0.762464  s :     0.762464
      pz      :     0.001631  p :     0.011311
      px      :     0.008801
      py      :     0.000879


                      *****************************
                      * MAYER POPULATION ANALYSIS *
                      *****************************

  NA   - Mulliken gross atomic population
  ZA   - Total nuclear charge
  QA   - Mulliken gross atomic charge
  VA   - Mayer's total valence
  BVA  - Mayer's bonded valence
  FA   - Mayer's free valence

  ATOM       NA         ZA         QA         VA         BVA        FA
  0 N      7.1363     7.0000    -0.1363     2.8988     2.8988     0.0000
  1 C      6.0808     6.0000    -0.0808     3.3406     3.3406    -0.0000
  2 H      0.7828     1.0000     0.2172     0.9377     0.9377    -0.0000

  Mayer bond orders larger than 0.1
B(  0-N ,  1-C ) :   2.6509 B(  0-N ,  2-H ) :   0.2479 B(  1-C ,  2-H ) :   0.6898 


-------
TIMINGS
-------

Total SCF time: 0 days 0 hours 0 min 5 sec 

Total time                  ....       5.883 sec
Sum of individual times     ....       5.778 sec  ( 98.2%)

Fock matrix formation       ....       5.147 sec  ( 87.5%)
  Split-RI-J                ....       3.661 sec  ( 71.1% of F)
  XC integration            ....       1.212 sec  ( 23.5% of F)
    Basis function eval.    ....       0.474 sec  ( 39.1% of XC)
    Density eval.           ....       0.150 sec  ( 12.3% of XC)
    XC-Functional eval.     ....       0.134 sec  ( 11.0% of XC)
    XC-Potential eval.      ....       0.246 sec  ( 20.3% of XC)
Diagonalization             ....       0.025 sec  (  0.4%)
Density matrix formation    ....       0.001 sec  (  0.0%)
Population analysis         ....       0.004 sec  (  0.1%)
Initial guess               ....       0.161 sec  (  2.7%)
Orbital Transformation      ....       0.000 sec  (  0.0%)
Orbital Orthonormalization  ....       0.000 sec  (  0.0%)
DIIS solution               ....       0.199 sec  (  3.4%)
SOSCF solution              ....       0.034 sec  (  0.6%)
Grid generation             ....       0.206 sec  (  3.5%)

-------------------------   --------------------
FINAL SINGLE POINT ENERGY       -93.002534737929
-------------------------   --------------------

------------------------------------------------------------------------------
                         ORCA SCF GRADIENT CALCULATION
------------------------------------------------------------------------------

Gradient of the Kohn-Sham DFT energy:
Kohn-Sham wavefunction type      ... RKS
Hartree-Fock exchange scaling    ...    0.000
Number of operators              ...    1
Number of atoms                  ...    3
Basis set dimensions             ...   68
Integral neglect threshold       ... 2.5e-11
Integral primitive cutoff        ... 2.5e-12

Nuclear repulsion gradient       ... done
One Electron Gradient            ... done
Pre-screening matrix             ... done
RI-J gradient                    ... done
Exchange-correlation gradient    ... done

------------------
CARTESIAN GRADIENT
------------------

   1   N   :   -0.202472566   -0.010783125   -0.058724280
   2   C   :    0.129016529    0.009892290    0.036264398
   3   H   :    0.073456037    0.000890835    0.022459882

Difference to translation invariance:
           :    0.0000000000   -0.0000000000    0.0000000000

Norm of the cartesian gradient     ...    0.2617617525
RMS gradient                       ...    0.0872539175
MAX gradient                       ...    0.2024725663

-------
TIMINGS
-------

Total SCF gradient time            ...        0.739 sec

One electron gradient       ....       0.007 sec  (  0.9%)
Prescreening matrices       ....       0.067 sec  (  9.1%)
RI-J Coulomb gradient       ....       0.152 sec  ( 20.6%)
XC gradient                 ....       0.355 sec  ( 48.0%)
------------------------------------------------------------------------------
                         ORCA GEOMETRY RELAXATION STEP
------------------------------------------------------------------------------

Reading the OPT-File                    .... done
Getting information on internals        .... done
Copying old internal coords+grads       .... done
Making the new internal coordinates     .... (new redundants).... done
Validating the new internal coordinates .... (new redundants).... done
Calculating the B-matrix                .... done
Calculating the G,G- and P matrices     .... done
Transforming gradient to internals      .... done
Projecting the internal gradient        .... done
Number of atoms                         ....   3
Number of internal coordinates          ....   4
Current Energy                          ....   -93.002534738 Eh
Current gradient norm                   ....     0.261761752 Eh/bohr
Maximum allowed component of the step   ....  0.300
Current trust radius                    ....  0.300
Evaluating the initial hessian          ....  (Almloef) done
Projecting the Hessian                  .... done
Forming the augmented Hessian           .... done
Diagonalizing the augmented Hessian     .... done
Last element of RFO vector              ....  0.789759878
Lowest eigenvalues of augmented Hessian:
 -0.172266329  0.042595985  0.196022550  0.196022600
Length of the computed step             ....  0.776712183
Warning: the length of the step is outside the trust region - taking restricted step instead
The input lambda is                     ....    -0.172266
   iter:   1  x=   -0.289825  g=    4.366190 f(x)=     0.513282
   iter:   2  x=   -0.430756  g=    1.488965 f(x)=     0.209842
   iter:   3  x=   -0.555348  g=    0.602149 f(x)=     0.075023
   iter:   4  x=   -0.615764  g=    0.324958 f(x)=     0.019633
   iter:   5  x=   -0.625171  g=    0.251032 f(x)=     0.002362
   iter:   6  x=   -0.625356  g=    0.241615 f(x)=     0.000045
   iter:   7  x=   -0.625356  g=    0.241434 f(x)=     0.000000
   iter:   8  x=   -0.625356  g=    0.241434 f(x)=     0.000000
The output lambda is                    ....    -0.625356 (8 iterations)
The final length of the internal step   ....  0.300000000
Converting the step to cartesian space:
 Initial RMS(Int)=    0.1500000000
Transforming coordinates:
 Iter   0:  RMS(Cart)=    0.0951788496 RMS(Int)=    0.1499998044
 Iter   1:  RMS(Cart)=    0.0000175787 RMS(Int)=    0.0000212359
 Iter   2:  RMS(Cart)=    0.0000117740 RMS(Int)=    0.0000142213
 Iter   3:  RMS(Cart)=    0.0000078885 RMS(Int)=    0.0000095253
 Iter   4:  RMS(Cart)=    0.0000052860 RMS(Int)=    0.0000063807
 Iter   5:  RMS(Cart)=    0.0000035425 RMS(Int)=    0.0000042748
 Iter   6:  RMS(Cart)=    0.0000023745 RMS(Int)=    0.0000028643
 Iter   7:  RMS(Cart)=    0.0000015918 RMS(Int)=    0.0000019195
 Iter   8:  RMS(Cart)=    0.0000010672 RMS(Int)=    0.0000012865
 Iter   9:  RMS(Cart)=    0.0000007156 RMS(Int)=    0.0000008624
 Iter  10:  RMS(Cart)=    0.0000004800 RMS(Int)=    0.0000005782
 Iter  11:  RMS(Cart)=    0.0000003219 RMS(Int)=    0.0000003877
 Iter  12:  RMS(Cart)=    0.0000002160 RMS(Int)=    0.0000002600
 Iter  13:  RMS(Cart)=    0.0000001449 RMS(Int)=    0.0000001744
 Iter  14:  RMS(Cart)=    0.0000000973 RMS(Int)=    0.0000001170
done
Storing new coordinates                 .... done

                                .--------------------.
          ----------------------|Geometry convergence|-------------------------
          Item                value                   Tolerance       Converged
          ---------------------------------------------------------------------
          RMS gradient        0.1123175714            0.0001000000      NO
          MAX gradient        0.2110921934            0.0003000000      NO
          RMS step            0.1500000000            0.0020000000      NO
          MAX step            0.2762228674            0.0040000000      NO
          ........................................................
          Max(Bonds)      0.1462      Max(Angles)    0.01
          Max(Dihed)        0.00      Max(Improp)    0.00
          ---------------------------------------------------------------------

The optimization has not yet converged - more geometry cycles are needed


    ---------------------------------------------------------------------------
                         Redundant Internal Coordinates
                            (Angstroem and degrees)

        Definition                    Value    dE/dq     Step     New-Value
    ----------------------------------------------------------------------------
     1. B(C   1,N   0)                1.7694  0.211092 -0.1462    1.6232   
     2. B(H   2,C   1)                1.7582  0.076818 -0.0619    1.6963   
     3. L(N   0,C   1,H   2, 2)       182.52 -0.000160    0.01    182.53   
     4. L(N   0,C   1,H   2, 1)       180.91 -0.000075    0.01    180.91   
    ----------------------------------------------------------------------------

         *************************************************************
         *                GEOMETRY OPTIMIZATION CYCLE   2            *
         *************************************************************
---------------------------------
CARTESIAN COORDINATES (ANGSTROEM)
---------------------------------
  N     -3.148970    1.109775   -1.411612
  C     -1.591888    1.194657   -0.960851
  H      0.029737    1.211228   -0.463348

----------------------------
CARTESIAN COORDINATES (A.U.)
----------------------------
  NO LB      ZA    FRAG     MASS         X           Y           Z
   0 N     7.0000    0    14.007   -5.950690    2.097171   -2.667559
   1 C     6.0000    0    12.011   -3.008232    2.257574   -1.815744
   2 H     1.0000    0     1.008    0.056195    2.288889   -0.875601

--------------------------------
INTERNAL COORDINATES (ANGSTROEM)
--------------------------------
 N      0   0   0     0.000000000000     0.00000000     0.00000000
 C      1   0   0     1.623235743071     0.00000000     0.00000000
 H      2   1   0     1.696305069463   177.39799929     0.00000000

---------------------------
INTERNAL COORDINATES (A.U.)
---------------------------
 N      0   0   0     0.000000000000     0.00000000     0.00000000
 C      1   0   0     3.067471005196     0.00000000     0.00000000
 H      2   1   0     3.205552020868   177.39799929     0.00000000

 One Electron integrals                  ... done
 Pre-screening matrix                    ... done

Diagonalization of the overlap matrix:
Smallest eigenvalue                        ... 3.506e-03
Time for diagonalization                   ...    0.002 sec
Threshold for overlap eigenvalues          ... 1.000e-08
Number of eigenvalues below threshold      ... 0
Time for construction of square roots      ...    0.002 sec
Total time needed                          ...    0.004 sec

-------------------
DFT GRID GENERATION
-------------------

General Integration Accuracy     IntAcc      ...  4.340
Radial Grid Type                 RadialGrid  ... Gauss-Chebyshev
Angular Grid (max. acc.)         AngularGrid ... Lebedev-110
Angular grid pruning method      GridPruning ... 3 (G Style)
Weight generation scheme         WeightScheme... Becke
Basis function cutoff            BFCut       ...    1.0000e-11
Integration weight cutoff        WCut        ...    1.0000e-14
Grids for H and He will be reduced by one unit

# of grid points (after initial pruning)     ...   4152 (   0.0 sec)
# of grid points (after weights+screening)   ...   4137 (   0.0 sec)
nearest neighbour list constructed           ...    0.0 sec
Grid point re-assignment to atoms done       ...    0.0 sec
Grid point division into batches done        ...    0.0 sec
Reduced shell lists constructed in    0.0 sec

Total number of grid points                  ...     4137
Total number of batches                      ...       66
Average number of points per batch           ...       62
Average number of grid points per atom       ...     1379
Average number of shells per batch           ...    21.49 (82.66%)
Average number of basis functions per batch  ...    58.75 (86.39%)
Average number of large shells per batch     ...    19.30 (89.79%)
Average number of large basis fcns per batch ...    52.85 (89.96%)
Maximum spatial batch extension              ...  18.47, 25.60, 20.05 au
Average spatial batch extension              ...   5.91,  7.77,  7.31 au

Time for grid setup =    0.035 sec

--------------
SCF ITERATIONS
--------------
ITER       Energy         Delta-E        Max-DP      RMS-DP      [F,P]     Damp
               ***  Starting incremental Fock matrix formation  ***
  0    -93.0702769057   0.000000000000 0.00698015  0.00034103  0.0359734 0.7000
  1    -93.0717285138  -0.001451608094 0.00552210  0.00032121  0.0244454 0.7000
                               ***Turning on DIIS***
  2    -93.0727328109  -0.001004297111 0.01278882  0.00086546  0.0176218 0.0000
  3    -93.0747992455  -0.002066434555 0.00801541  0.00035027  0.0108100 0.0000
  4    -93.0746622613   0.000136984206 0.00295457  0.00014920  0.0171856 0.0000
  5    -93.0749550062  -0.000292744962 0.00157926  0.00007396  0.0055439 0.0000
                      *** Initiating the SOSCF procedure ***
                           *** Shutting down DIIS ***
                      *** Re-Reading the Fockian *** 
                      *** Removing any level shift *** 
ITER      Energy       Delta-E        Grad      Rot      Max-DP    RMS-DP
  6    -93.07500818  -0.0000531713  0.000385  0.000385  0.000576  0.000026
               *** Restarting incremental Fock matrix formation ***
  7    -93.07501401  -0.0000058305  0.000378  0.002969  0.001465  0.000079
  8    -93.07497210   0.0000419100  0.003416  0.002443  0.001316  0.000066
  9    -93.07501371  -0.0000416138  0.000502  0.003022  0.001533  0.000064
 10    -93.07500661   0.0000071001  0.001207  0.002179  0.001120  0.000047
 11    -93.07501490  -0.0000082851  0.000003  0.000015  0.000006  0.000000
 12    -93.07501490  -0.0000000005  0.000003  0.000007  0.000003  0.000000
                 **** Energy Check signals convergence ****
              ***Rediagonalizing the Fockian in SOSCF/NRSCF***

               *****************************************************
               *                     SUCCESS                       *
               *           SCF CONVERGED AFTER  13 CYCLES          *
               *****************************************************

Setting up the final grid:

General Integration Accuracy     IntAcc      ...  4.670
Radial Grid Type                 RadialGrid  ... Gauss-Chebyshev
Angular Grid (max. acc.)         AngularGrid ... Lebedev-302
Angular grid pruning method      GridPruning ... 3 (G Style)
Weight generation scheme         WeightScheme... Becke
Basis function cutoff            BFCut       ...    1.0000e-11
Integration weight cutoff        WCut        ...    1.0000e-14
Grids for H and He will be reduced by one unit

# of grid points (after initial pruning)     ...  15818 (   0.0 sec)
# of grid points (after weights+screening)   ...  15722 (   0.0 sec)
nearest neighbour list constructed           ...    0.0 sec
Grid point re-assignment to atoms done       ...    0.0 sec
Grid point division into batches done        ...    0.1 sec
Reduced shell lists constructed in    0.2 sec

Total number of grid points                  ...    15722
Total number of batches                      ...      247
Average number of points per batch           ...       63
Average number of grid points per atom       ...     5241
Average number of shells per batch           ...    19.32 (74.30%)
Average number of basis functions per batch  ...    52.33 (76.96%)
Average number of large shells per batch     ...    17.20 (89.04%)
Average number of large basis fcns per batch ...    46.81 (89.44%)
Maximum spatial batch extension              ...  17.32, 22.50, 26.11 au
Average spatial batch extension              ...   3.54,  4.25,  4.32 au

Final grid set up in    0.2 sec
Final integration                            ... done (   0.1 sec)
Change in XC energy                          ...     0.000094317
Integrated number of electrons               ...    13.999999703
Previous integrated no of electrons          ...    13.999944808
Total Energy       :          -93.07492058 Eh           -2532.69735 eV
  Last Energy change         ...    8.6064e-10  Tolerance :   1.0000e-08
  Last MAX-Density change    ...    5.6096e-07  Tolerance :   1.0000e-07
             **** THE GBW FILE WAS UPDATED (opt.gbw) ****
             **** DENSITY FILE WAS UPDATED (opt.scfp.tmp) ****
             **** ENERGY FILE WAS UPDATED (opt.en.tmp) ****
Total SCF time: 0 days 0 hours 0 min 3 sec 

-------------------------   --------------------
FINAL SINGLE POINT ENERGY       -93.074920579589
-------------------------   --------------------

------------------------------------------------------------------------------
                         ORCA SCF GRADIENT CALCULATION
------------------------------------------------------------------------------

Gradient of the Kohn-Sham DFT energy:
Kohn-Sham wavefunction type      ... RKS
Hartree-Fock exchange scaling    ...    0.000
Number of operators              ...    1
Number of atoms                  ...    3
Basis set dimensions             ...   68
Integral neglect threshold       ... 2.5e-11
Integral primitive cutoff        ... 2.5e-12

Nuclear repulsion gradient       ... done
One Electron Gradient            ... done
Pre-screening matrix             ... done
RI-J gradient                    ... done
Exchange-correlation gradient    ... done

------------------
CARTESIAN GRADIENT
------------------

   1   N   :   -0.233287863   -0.012739356   -0.067539028
   2   C   :    0.153027638    0.011935018    0.042935410
   3   H   :    0.080260225    0.000804338    0.024603619

Difference to translation invariance:
           :    0.0000000000    0.0000000000    0.0000000000

Norm of the cartesian gradient     ...    0.3026517464
RMS gradient                       ...    0.1008839155
MAX gradient                       ...    0.2332878633

-------
TIMINGS
-------

Total SCF gradient time            ...        0.811 sec

One electron gradient       ....       0.007 sec  (  0.9%)
Prescreening matrices       ....       0.071 sec  (  8.7%)
RI-J Coulomb gradient       ....       0.184 sec  ( 22.6%)
XC gradient                 ....       0.377 sec  ( 46.4%)
------------------------------------------------------------------------------
                         ORCA GEOMETRY RELAXATION STEP
------------------------------------------------------------------------------

Reading the OPT-File                    .... done
Getting information on internals        .... done
Copying old internal coords+grads       .... done
Making the new internal coordinates     .... (new redundants).... done
Validating the new internal coordinates .... (new redundants).... done
Calculating the B-matrix                .... done
Calculating the G,G- and P matrices     .... done
Transforming gradient to internals      .... done
Projecting the internal gradient        .... done
Number of atoms                         ....   3
Number of internal coordinates          ....   4
Current Energy                          ....   -93.074920580 Eh
Current gradient norm                   ....     0.302651746 Eh/bohr
Maximum allowed component of the step   ....  0.300
Current trust radius                    ....  0.300
Updating the Hessian (BFGS)             .... done
Forming the augmented Hessian           .... done
Diagonalizing the augmented Hessian     .... done
Last element of RFO vector              ....  0.628578566
Lowest eigenvalues of augmented Hessian:
 -0.318205467  0.033415113  0.196011713  0.196022600
Length of the computed step             ....  1.237309281
Warning: the length of the step is outside the trust region - taking restricted step instead
The input lambda is                     ....    -0.318205
   iter:   1  x=   -0.415973  g=   14.738411 f(x)=     1.440934
   iter:   2  x=   -0.549345  g=    4.633382 f(x)=     0.617964
   iter:   3  x=   -0.711290  g=    1.563112 f(x)=     0.253139
   iter:   4  x=   -0.864128  g=    0.609371 f(x)=     0.093135
   iter:   5  x=   -0.949652  g=    0.308800 f(x)=     0.026410
   iter:   6  x=   -0.967082  g=    0.223704 f(x)=     0.003899
   iter:   7  x=   -0.967644  g=    0.210328 f(x)=     0.000118
   iter:   8  x=   -0.967644  g=    0.209915 f(x)=     0.000000
   iter:   9  x=   -0.967644  g=    0.209915 f(x)=     0.000000
   iter:  10  x=   -0.967644  g=    0.209915 f(x)=    -0.000000
The output lambda is                    ....    -0.967644 (10 iterations)
The final length of the internal step   ....  0.300000000
Converting the step to cartesian space:
 Initial RMS(Int)=    0.1500000000
Transforming coordinates:
 Iter   0:  RMS(Cart)=    0.0930940625 RMS(Int)=    0.1499997684
 Iter   1:  RMS(Cart)=    0.0000197851 RMS(Int)=    0.0000256720
 Iter   2:  RMS(Cart)=    0.0000127830 RMS(Int)=    0.0000165799
 Iter   3:  RMS(Cart)=    0.0000082580 RMS(Int)=    0.0000107091
 Iter   4:  RMS(Cart)=    0.0000053352 RMS(Int)=    0.0000069175
 Iter   5:  RMS(Cart)=    0.0000034472 RMS(Int)=    0.0000044687
 Iter   6:  RMS(Cart)=    0.0000022274 RMS(Int)=    0.0000028870
 Iter   7:  RMS(Cart)=    0.0000014394 RMS(Int)=    0.0000018652
 Iter   8:  RMS(Cart)=    0.0000009302 RMS(Int)=    0.0000012052
 Iter   9:  RMS(Cart)=    0.0000006012 RMS(Int)=    0.0000007788
 Iter  10:  RMS(Cart)=    0.0000003886 RMS(Int)=    0.0000005033
 Iter  11:  RMS(Cart)=    0.0000002512 RMS(Int)=    0.0000003253
 Iter  12:  RMS(Cart)=    0.0000001624 RMS(Int)=    0.0000002102
 Iter  13:  RMS(Cart)=    0.0000001050 RMS(Int)=    0.0000001359
 Iter  14:  RMS(Cart)=    0.0000000679 RMS(Int)=    0.0000000879
done
Storing new coordinates                 .... done

                                .--------------------.
          ----------------------|Geometry convergence|-------------------------
          Item                value                   Tolerance       Converged
          ---------------------------------------------------------------------
          Energy change      -0.0723858417            0.0000050000      NO
          RMS gradient        0.1286416542            0.0001000000      NO
          MAX gradient        0.2432015583            0.0003000000      NO
          RMS step            0.1500000000            0.0020000000      NO
          MAX step            0.2845613827            0.0040000000      NO
          ........................................................
          Max(Bonds)      0.1506      Max(Angles)    0.01
          Max(Dihed)        0.00      Max(Improp)    0.00
          ---------------------------------------------------------------------

The optimization has not yet converged - more geometry cycles are needed


    ---------------------------------------------------------------------------
                         Redundant Internal Coordinates
                            (Angstroem and degrees)

        Definition                    Value    dE/dq     Step     New-Value
    ----------------------------------------------------------------------------
     1. B(C   1,N   0)                1.6232  0.243202 -0.1506    1.4727   
     2. B(H   2,C   1)                1.6963  0.083951 -0.0503    1.6460   
     3. L(N   0,C   1,H   2, 2)       182.53  0.000019   -0.01    182.53   
     4. L(N   0,C   1,H   2, 1)       180.91 -0.000011   -0.00    180.91   
    ----------------------------------------------------------------------------

         *************************************************************
         *                GEOMETRY OPTIMIZATION CYCLE   3            *
         *************************************************************
---------------------------------
CARTESIAN COORDINATES (ANGSTROEM)
---------------------------------
  N     -3.036700    1.114524   -1.378579
  C     -1.624033    1.192103   -0.969853
  H     -0.050387    1.209033   -0.487378

----------------------------
CARTESIAN COORDINATES (A.U.)
----------------------------
  NO LB      ZA    FRAG     MASS         X           Y           Z
   0 N     7.0000    0    14.007   -5.738531    2.106145   -2.605137
   1 C     6.0000    0    12.011   -3.068977    2.252748   -1.832756
   2 H     1.0000    0     1.008   -0.095218    2.284742   -0.921011

--------------------------------
INTERNAL COORDINATES (ANGSTROEM)
--------------------------------
 N      0   0   0     0.000000000000     0.00000000     0.00000000
 C      1   0   0     1.472652344953     0.00000000     0.00000000
 H      2   1   0     1.646033793267   177.40549462     0.00000000

---------------------------
INTERNAL COORDINATES (A.U.)
---------------------------
 N      0   0   0     0.000000000000     0.00000000     0.00000000
 C      1   0   0     2.782909622438     0.00000000     0.00000000
 H      2   1   0     3.110553076455   177.40549462     0.00000000

 One Electron integrals                  ... done
 Pre-screening matrix                    ... done

Diagonalization of the overlap matrix:
Smallest eigenvalue                        ... 1.766e-03
Time for diagonalization                   ...    0.002 sec
Threshold for overlap eigenvalues          ... 1.000e-08
Number of eigenvalues below threshold      ... 0
Time for construction of square roots      ...    0.003 sec
Total time needed                          ...    0.005 sec

-------------------
DFT GRID GENERATION
-------------------

General Integration Accuracy     IntAcc      ...  4.340
Radial Grid Type                 RadialGrid  ... Gauss-Chebyshev
Angular Grid (max. acc.)         AngularGrid ... Lebedev-110
Angular grid pruning method      GridPruning ... 3 (G Style)
Weight generation scheme         WeightScheme... Becke
Basis function cutoff            BFCut       ...    1.0000e-11
Integration weight cutoff        WCut        ...    1.0000e-14
Grids for H and He will be reduced by one unit

# of grid points (after initial pruning)     ...   4152 (   0.0 sec)
# of grid points (after weights+screening)   ...   4136 (   0.0 sec)
nearest neighbour list constructed           ...    0.0 sec
Grid point re-assignment to atoms done       ...    0.0 sec
Grid point division into batches done        ...    0.0 sec
Reduced shell lists constructed in    0.0 sec

Total number of grid points                  ...     4136
Total number of batches                      ...       67
Average number of points per batch           ...       61
Average number of grid points per atom       ...     1379
Average number of shells per batch           ...    21.79 (83.82%)
Average number of basis functions per batch  ...    59.68 (87.76%)
Average number of large shells per batch     ...    19.47 (89.34%)
Average number of large basis fcns per batch ...    53.26 (89.26%)
Maximum spatial batch extension              ...  18.56, 25.60, 20.05 au
Average spatial batch extension              ...   5.85,  7.53,  7.29 au

Time for grid setup =    0.035 sec

--------------
SCF ITERATIONS
--------------
ITER       Energy         Delta-E        Max-DP      RMS-DP      [F,P]     Damp
               ***  Starting incremental Fock matrix formation  ***
  0    -93.1483551840   0.000000000000 0.00904884  0.00043575  0.0453988 0.7000
  1    -93.1505043285  -0.002149144492 0.00692208  0.00038684  0.0290979 0.7000
                               ***Turning on DIIS***
  2    -93.1518965977  -0.001392269161 0.01585235  0.00100527  0.0191553 0.0000
  3    -93.1547781065  -0.002881508835 0.00858712  0.00034647  0.0107475 0.0000
  4    -93.1548109422  -0.000032835746 0.00308438  0.00015726  0.0130797 0.0000
  5    -93.1549891129  -0.000178170672 0.00148981  0.00006568  0.0037137 0.0000
                      *** Initiating the SOSCF procedure ***
                           *** Shutting down DIIS ***
                      *** Re-Reading the Fockian *** 
                      *** Removing any level shift *** 
ITER      Energy       Delta-E        Grad      Rot      Max-DP    RMS-DP
  6    -93.15502084  -0.0000317258  0.000350  0.000350  0.000857  0.000042
               *** Restarting incremental Fock matrix formation ***
  7    -93.15502215  -0.0000013116  0.000415  0.002248  0.001093  0.000060
  8    -93.15500645   0.0000157036  0.001951  0.001618  0.000902  0.000045
  9    -93.15502110  -0.0000146527  0.000531  0.003116  0.001858  0.000075
 10    -93.15501117   0.0000099333  0.001266  0.002323  0.001356  0.000055
 11    -93.15502299  -0.0000118210  0.000012  0.000024  0.000024  0.000001
 12    -93.15502299  -0.0000000018  0.000007  0.000011  0.000009  0.000001
                 **** Energy Check signals convergence ****
              ***Rediagonalizing the Fockian in SOSCF/NRSCF***

               *****************************************************
               *                     SUCCESS                       *
               *           SCF CONVERGED AFTER  13 CYCLES          *
               *****************************************************

Setting up the final grid:

General Integration Accuracy     IntAcc      ...  4.670
Radial Grid Type                 RadialGrid  ... Gauss-Chebyshev
Angular Grid (max. acc.)         AngularGrid ... Lebedev-302
Angular grid pruning method      GridPruning ... 3 (G Style)
Weight generation scheme         WeightScheme... Becke
Basis function cutoff            BFCut       ...    1.0000e-11
Integration weight cutoff        WCut        ...    1.0000e-14
Grids for H and He will be reduced by one unit

# of grid points (after initial pruning)     ...  15818 (   0.0 sec)
# of grid points (after weights+screening)   ...  15713 (   0.0 sec)
nearest neighbour list constructed           ...    0.0 sec
Grid point re-assignment to atoms done       ...    0.0 sec
Grid point division into batches done        ...    0.1 sec
Reduced shell lists constructed in    0.2 sec

Total number of grid points                  ...    15713
Total number of batches                      ...      247
Average number of points per batch           ...       63
Average number of grid points per atom       ...     5238
Average number of shells per batch           ...    19.56 (75.25%)
Average number of basis functions per batch  ...    53.07 (78.05%)
Average number of large shells per batch     ...    17.44 (89.16%)
Average number of large basis fcns per batch ...    47.54 (89.58%)
Maximum spatial batch extension              ...  17.77, 22.64, 26.11 au
Average spatial batch extension              ...   3.53,  4.27,  4.38 au

Final grid set up in    0.2 sec
Final integration                            ... done (   0.1 sec)
Change in XC energy                          ...     0.000085328
Integrated number of electrons               ...    13.999999135
Previous integrated no of electrons          ...    13.999947843
Total Energy       :          -93.15493766 Eh           -2534.87472 eV
  Last Energy change         ...    3.8895e-11  Tolerance :   1.0000e-08
  Last MAX-Density change    ...    6.3784e-07  Tolerance :   1.0000e-07
             **** THE GBW FILE WAS UPDATED (opt.gbw) ****
             **** DENSITY FILE WAS UPDATED (opt.scfp.tmp) ****
             **** ENERGY FILE WAS UPDATED (opt.en.tmp) ****
Total SCF time: 0 days 0 hours 0 min 4 sec 

-------------------------   --------------------
FINAL SINGLE POINT ENERGY       -93.154937660894
-------------------------   --------------------

------------------------------------------------------------------------------
                         ORCA SCF GRADIENT CALCULATION
------------------------------------------------------------------------------

Gradient of the Kohn-Sham DFT energy:
Kohn-Sham wavefunction type      ... RKS
Hartree-Fock exchange scaling    ...    0.000
Number of operators              ...    1
Number of atoms                  ...    3
Basis set dimensions             ...   68
Integral neglect threshold       ... 2.5e-11
Integral primitive cutoff        ... 2.5e-12

Nuclear repulsion gradient       ... done
One Electron Gradient            ... done
Pre-screening matrix             ... done
RI-J gradient                    ... done
Exchange-correlation gradient    ... done

------------------
CARTESIAN GRADIENT
------------------

   1   N   :   -0.244800449   -0.013688171   -0.070743808
   2   C   :    0.158335412    0.012970646    0.044180873
   3   H   :    0.086465037    0.000717525    0.026562935

Difference to translation invariance:
           :    0.0000000000   -0.0000000000    0.0000000000

Norm of the cartesian gradient     ...    0.3170045883
RMS gradient                       ...    0.1056681961
MAX gradient                       ...    0.2448004487

-------
TIMINGS
-------

Total SCF gradient time            ...        0.754 sec

One electron gradient       ....       0.007 sec  (  0.9%)
Prescreening matrices       ....       0.072 sec  (  9.5%)
RI-J Coulomb gradient       ....       0.152 sec  ( 20.2%)
XC gradient                 ....       0.365 sec  ( 48.5%)
------------------------------------------------------------------------------
                         ORCA GEOMETRY RELAXATION STEP
------------------------------------------------------------------------------

Reading the OPT-File                    .... done
Getting information on internals        .... done
Copying old internal coords+grads       .... done
Making the new internal coordinates     .... (new redundants).... done
Validating the new internal coordinates .... (new redundants).... done
Calculating the B-matrix                .... done
Calculating the G,G- and P matrices     .... done
Transforming gradient to internals      .... done
Projecting the internal gradient        .... done
Number of atoms                         ....   3
Number of internal coordinates          ....   4
Current Energy                          ....   -93.154937661 Eh
Current gradient norm                   ....     0.317004588 Eh/bohr
Maximum allowed component of the step   ....  0.300
Current trust radius                    ....  0.300
Updating the Hessian (BFGS)             .... done
Forming the augmented Hessian           .... done
Diagonalizing the augmented Hessian     .... done
Last element of RFO vector              ....  0.677019651
Lowest eigenvalues of augmented Hessian:
 -0.294256943  0.033199464  0.196006109  0.196022600
Length of the computed step             ....  1.087065845
Warning: the length of the step is outside the trust region - taking restricted step instead
The input lambda is                     ....    -0.294257
   iter:   1  x=   -0.409245  g=    9.494157 f(x)=     1.091712
   iter:   2  x=   -0.561616  g=    3.038391 f(x)=     0.462965
   iter:   3  x=   -0.735250  g=    1.064189 f(x)=     0.184779
   iter:   4  x=   -0.878506  g=    0.446023 f(x)=     0.063896
   iter:   5  x=   -0.939835  g=    0.253271 f(x)=     0.015533
   iter:   6  x=   -0.947460  g=    0.204675 f(x)=     0.001561
   iter:   7  x=   -0.947559  g=    0.199530 f(x)=     0.000020
   iter:   8  x=   -0.947559  g=    0.199464 f(x)=     0.000000
   iter:   9  x=   -0.947559  g=    0.199464 f(x)=     0.000000
The output lambda is                    ....    -0.947559 (9 iterations)
The final length of the internal step   ....  0.300000000
Converting the step to cartesian space:
 Initial RMS(Int)=    0.1500000000
Transforming coordinates:
 Iter   0:  RMS(Cart)=    0.0937933450 RMS(Int)=    0.1499996586
 Iter   1:  RMS(Cart)=    0.0000490009 RMS(Int)=    0.0000682319
 Iter   2:  RMS(Cart)=    0.0000303756 RMS(Int)=    0.0000422830
 Iter   3:  RMS(Cart)=    0.0000188307 RMS(Int)=    0.0000262057
 Iter   4:  RMS(Cart)=    0.0000116752 RMS(Int)=    0.0000162434
 Iter   5:  RMS(Cart)=    0.0000072396 RMS(Int)=    0.0000100696
 Iter   6:  RMS(Cart)=    0.0000044899 RMS(Int)=    0.0000062432
 Iter   7:  RMS(Cart)=    0.0000027849 RMS(Int)=    0.0000038713
 Iter   8:  RMS(Cart)=    0.0000017276 RMS(Int)=    0.0000024009
 Iter   9:  RMS(Cart)=    0.0000010719 RMS(Int)=    0.0000014892
 Iter  10:  RMS(Cart)=    0.0000006652 RMS(Int)=    0.0000009238
 Iter  11:  RMS(Cart)=    0.0000004128 RMS(Int)=    0.0000005732
 Iter  12:  RMS(Cart)=    0.0000002563 RMS(Int)=    0.0000003557
 Iter  13:  RMS(Cart)=    0.0000001591 RMS(Int)=    0.0000002208
 Iter  14:  RMS(Cart)=    0.0000000988 RMS(Int)=    0.0000001370
done
Storing new coordinates                 .... done

                                .--------------------.
          ----------------------|Geometry convergence|-------------------------
          Item                value                   Tolerance       Converged
          ---------------------------------------------------------------------
          Energy change      -0.0800170813            0.0000050000      NO
          RMS gradient        0.1353712099            0.0001000000      NO
          MAX gradient        0.2551844115            0.0003000000      NO
          RMS step            0.1500000000            0.0020000000      NO
          MAX step            0.2820918976            0.0040000000      NO
          ........................................................
          Max(Bonds)      0.1493      Max(Angles)    0.02
          Max(Dihed)        0.00      Max(Improp)    0.00
          ---------------------------------------------------------------------

The optimization has not yet converged - more geometry cycles are needed


    ---------------------------------------------------------------------------
                         Redundant Internal Coordinates
                            (Angstroem and degrees)

        Definition                    Value    dE/dq     Step     New-Value
    ----------------------------------------------------------------------------
     1. B(C   1,N   0)                1.4727  0.255184 -0.1493    1.3234   
     2. B(H   2,C   1)                1.6460  0.090456 -0.0540    1.5920   
     3. L(N   0,C   1,H   2, 2)       182.53  0.000229   -0.02    182.50   
     4. L(N   0,C   1,H   2, 1)       180.91  0.000068   -0.01    180.90   
    ----------------------------------------------------------------------------

         *************************************************************
         *                GEOMETRY OPTIMIZATION CYCLE   4            *
         *************************************************************
---------------------------------
CARTESIAN COORDINATES (ANGSTROEM)
---------------------------------
  N     -2.924062    1.119393   -1.345481
  C     -1.654573    1.189438   -0.978309
  H     -0.132484    1.206829   -0.512020

----------------------------
CARTESIAN COORDINATES (A.U.)
----------------------------
  NO LB      ZA    FRAG     MASS         X           Y           Z
   0 N     7.0000    0    14.007   -5.525677    2.115346   -2.542590
   1 C     6.0000    0    12.011   -3.126691    2.247712   -1.848736
   2 H     1.0000    0     1.008   -0.250359    2.280576   -0.967578

--------------------------------
INTERNAL COORDINATES (ANGSTROEM)
--------------------------------
 N      0   0   0     0.000000000000     0.00000000     0.00000000
 C      1   0   0     1.323375742049     0.00000000     0.00000000
 H      2   1   0     1.592005924353   177.42903135     0.00000000

---------------------------
INTERNAL COORDINATES (A.U.)
---------------------------
 N      0   0   0     0.000000000000     0.00000000     0.00000000
 C      1   0   0     2.500817724747     0.00000000     0.00000000
 H      2   1   0     3.008455200607   177.42903135     0.00000000

 One Electron integrals                  ... done
 Pre-screening matrix                    ... done

Diagonalization of the overlap matrix:
Smallest eigenvalue                        ... 9.243e-04
Time for diagonalization                   ...    0.002 sec
Threshold for overlap eigenvalues          ... 1.000e-08
Number of eigenvalues below threshold      ... 0
Time for construction of square roots      ...    0.002 sec
Total time needed                          ...    0.003 sec

-------------------
DFT GRID GENERATION
-------------------

General Integration Accuracy     IntAcc      ...  4.340
Radial Grid Type                 RadialGrid  ... Gauss-Chebyshev
Angular Grid (max. acc.)         AngularGrid ... Lebedev-110
Angular grid pruning method      GridPruning ... 3 (G Style)
Weight generation scheme         WeightScheme... Becke
Basis function cutoff            BFCut       ...    1.0000e-11
Integration weight cutoff        WCut        ...    1.0000e-14
Grids for H and He will be reduced by one unit

# of grid points (after initial pruning)     ...   4152 (   0.0 sec)
# of grid points (after weights+screening)   ...   4134 (   0.0 sec)
nearest neighbour list constructed           ...    0.0 sec
Grid point re-assignment to atoms done       ...    0.0 sec
Grid point division into batches done        ...    0.0 sec
Reduced shell lists constructed in    0.0 sec

Total number of grid points                  ...     4134
Total number of batches                      ...       66
Average number of points per batch           ...       62
Average number of grid points per atom       ...     1378
Average number of shells per batch           ...    21.99 (84.56%)
Average number of basis functions per batch  ...    60.10 (88.39%)
Average number of large shells per batch     ...    19.64 (89.34%)
Average number of large basis fcns per batch ...    53.82 (89.55%)
Maximum spatial batch extension              ...  18.49, 25.60, 20.41 au
Average spatial batch extension              ...   5.89,  7.69,  7.43 au

Time for grid setup =    0.034 sec

--------------
SCF ITERATIONS
--------------
ITER       Energy         Delta-E        Max-DP      RMS-DP      [F,P]     Damp
               ***  Starting incremental Fock matrix formation  ***
  0    -93.2232577353   0.000000000000 0.01104157  0.00051807  0.0522602 0.7000
  1    -93.2262591882  -0.003001452924 0.00822030  0.00045029  0.0319921 0.7000
                               ***Turning on DIIS***
  2    -93.2280647520  -0.001805563835 0.01800846  0.00116747  0.0206338 0.0000
  3    -93.2317360856  -0.003671333521 0.00824802  0.00034000  0.0114985 0.0000
  4    -93.2319630834  -0.000226997857 0.00286115  0.00012131  0.0064780 0.0000
  5    -93.2319982112  -0.000035127736 0.00098151  0.00005241  0.0048937 0.0000
                      *** Initiating the SOSCF procedure ***
                           *** Shutting down DIIS ***
                      *** Re-Reading the Fockian *** 
                      *** Removing any level shift *** 
ITER      Energy       Delta-E        Grad      Rot      Max-DP    RMS-DP
  6    -93.23202392  -0.0000257048  0.000154  0.000154  0.000367  0.000015
               *** Restarting incremental Fock matrix formation ***
  7    -93.23202565  -0.0000017341  0.000160  0.000718  0.000437  0.000024
  8    -93.23202238   0.0000032680  0.000871  0.000614  0.000378  0.000019
  9    -93.23202579  -0.0000034042  0.000013  0.000042  0.000033  0.000001
 10    -93.23202579   0.0000000009  0.000023  0.000031  0.000021  0.000001
                 **** Energy Check signals convergence ****
              ***Rediagonalizing the Fockian in SOSCF/NRSCF***

               *****************************************************
               *                     SUCCESS                       *
               *           SCF CONVERGED AFTER  11 CYCLES          *
               *****************************************************

Setting up the final grid:

General Integration Accuracy     IntAcc      ...  4.670
Radial Grid Type                 RadialGrid  ... Gauss-Chebyshev
Angular Grid (max. acc.)         AngularGrid ... Lebedev-302
Angular grid pruning method      GridPruning ... 3 (G Style)
Weight generation scheme         WeightScheme... Becke
Basis function cutoff            BFCut       ...    1.0000e-11
Integration weight cutoff        WCut        ...    1.0000e-14
Grids for H and He will be reduced by one unit

# of grid points (after initial pruning)     ...  15818 (   0.0 sec)
# of grid points (after weights+screening)   ...  15705 (   0.0 sec)
nearest neighbour list constructed           ...    0.0 sec
Grid point re-assignment to atoms done       ...    0.0 sec
Grid point division into batches done        ...    0.1 sec
Reduced shell lists constructed in    0.2 sec

Total number of grid points                  ...    15705
Total number of batches                      ...      246
Average number of points per batch           ...       63
Average number of grid points per atom       ...     5235
Average number of shells per batch           ...    19.79 (76.13%)
Average number of basis functions per batch  ...    53.82 (79.14%)
Average number of large shells per batch     ...    17.67 (89.28%)
Average number of large basis fcns per batch ...    48.09 (89.35%)
Maximum spatial batch extension              ...  17.67, 23.20, 26.11 au
Average spatial batch extension              ...   3.47,  4.28,  4.27 au

Final grid set up in    0.2 sec
Final integration                            ... done (   0.1 sec)
Change in XC energy                          ...     0.000060218
Integrated number of electrons               ...    13.999996396
Previous integrated no of electrons          ...    13.999963046
Total Energy       :          -93.23196557 Eh           -2536.97076 eV
  Last Energy change         ...   -2.5230e-09  Tolerance :   1.0000e-08
  Last MAX-Density change    ...    3.2474e-06  Tolerance :   1.0000e-07
             **** THE GBW FILE WAS UPDATED (opt.gbw) ****
             **** DENSITY FILE WAS UPDATED (opt.scfp.tmp) ****
             **** ENERGY FILE WAS UPDATED (opt.en.tmp) ****
Total SCF time: 0 days 0 hours 0 min 2 sec 

-------------------------   --------------------
FINAL SINGLE POINT ENERGY       -93.231965570033
-------------------------   --------------------

------------------------------------------------------------------------------
                         ORCA SCF GRADIENT CALCULATION
------------------------------------------------------------------------------

Gradient of the Kohn-Sham DFT energy:
Kohn-Sham wavefunction type      ... RKS
Hartree-Fock exchange scaling    ...    0.000
Number of operators              ...    1
Number of atoms                  ...    3
Basis set dimensions             ...   68
Integral neglect threshold       ... 2.5e-11
Integral primitive cutoff        ... 2.5e-12

Nuclear repulsion gradient       ... done
One Electron Gradient            ... done
Pre-screening matrix             ... done
RI-J gradient                    ... done
Exchange-correlation gradient    ... done

------------------
CARTESIAN GRADIENT
------------------

   1   N   :   -0.200078090   -0.011544242   -0.057669302
   2   C   :    0.107705542    0.010911894    0.029239226
   3   H   :    0.092372548    0.000632348    0.028430077

Difference to translation invariance:
           :    0.0000000000   -0.0000000000   -0.0000000000

Norm of the cartesian gradient     ...    0.2557461682
RMS gradient                       ...    0.0852487227
MAX gradient                       ...    0.2000780903

-------
TIMINGS
-------

Total SCF gradient time            ...        0.752 sec

One electron gradient       ....       0.007 sec  (  0.9%)
Prescreening matrices       ....       0.069 sec  (  9.1%)
RI-J Coulomb gradient       ....       0.148 sec  ( 19.7%)
XC gradient                 ....       0.368 sec  ( 49.0%)
------------------------------------------------------------------------------
                         ORCA GEOMETRY RELAXATION STEP
------------------------------------------------------------------------------

Reading the OPT-File                    .... done
Getting information on internals        .... done
Copying old internal coords+grads       .... done
Making the new internal coordinates     .... (new redundants).... done
Validating the new internal coordinates .... (new redundants).... done
Calculating the B-matrix                .... done
Calculating the G,G- and P matrices     .... done
Transforming gradient to internals      .... done
Projecting the internal gradient        .... done
Number of atoms                         ....   3
Number of internal coordinates          ....   4
Current Energy                          ....   -93.231965570 Eh
Current gradient norm                   ....     0.255746168 Eh/bohr
Maximum allowed component of the step   ....  0.300
Current trust radius                    ....  0.300
Updating the Hessian (BFGS)             .... done
Forming the augmented Hessian           .... done
Diagonalizing the augmented Hessian     .... done
Last element of RFO vector              ....  0.768999834
Lowest eigenvalues of augmented Hessian:
 -0.183643484  0.076629843  0.196020455  0.196022601
Length of the computed step             ....  0.831273232
[...]
   PBE beta parameter  CBetaPBE         ....  0.066725
 LDA part of GGA corr.  LDAOpt          .... PW91-LDA
 Gradients option       PostSCFGGA      .... off
   NL short-range parameter             ....  6.400000
 RI-approximation to the Coulomb term is turned on
   Number of auxiliary basis functions  .... 109


General Settings:
 Integral files         IntName         .... opt
 Hartree-Fock type      HFTyp           .... RHF
 Total Charge           Charge          ....    0
 Multiplicity           Mult            ....    1
 Number of Electrons    NEL             ....   14
 Basis Dimension        Dim             ....   68
 Nuclear Repulsion      ENuc            ....     23.7941902637 Eh

Convergence Acceleration:
 DIIS                   CNVDIIS         .... on
   Start iteration      DIISMaxIt       ....    12
   Startup error        DIISStart       ....  0.200000
   # of expansion vecs  DIISMaxEq       ....     5
   Bias factor          DIISBfac        ....   1.050
   Max. coefficient     DIISMaxC        ....  10.000
 Newton-Raphson         CNVNR           .... off
 SOSCF                  CNVSOSCF        .... on
   Start iteration      SOSCFMaxIt      ....   150
   Startup grad/error   SOSCFStart      ....  0.003300
 Level Shifting         CNVShift        .... on
   Level shift para.    LevelShift      ....    0.2500
   Turn off err/grad.   ShiftErr        ....    0.0010
 Zerner damping         CNVZerner       .... off
 Static damping         CNVDamp         .... on
   Fraction old density DampFac         ....    0.7000
   Max. Damping (<1)    DampMax         ....    0.9800
   Min. Damping (>=0)   DampMin         ....    0.0000
   Turn off err/grad.   DampErr         ....    0.1000
 Fernandez-Rico         CNVRico         .... off

SCF Procedure:
 Maximum # iterations   MaxIter         ....   125
 SCF integral mode      SCFMode         .... Direct
   Integral package                     .... LIBINT
 Reset frequeny         DirectResetFreq ....    20
 Integral Threshold     Thresh          ....  2.500e-11 Eh
 Primitive CutOff       TCut            ....  2.500e-12 Eh

Convergence Tolerance:
 Convergence Check Mode ConvCheckMode   .... Total+1el-Energy
 Convergence forced     ConvForced      .... 0
 Energy Change          TolE            ....  1.000e-08 Eh
 1-El. energy change                    ....  1.000e-05 Eh
 Orbital Gradient       TolG            ....  1.000e-05
 Orbital Rotation angle TolX            ....  1.000e-05
 DIIS Error             TolErr          ....  5.000e-07


Diagonalization of the overlap matrix:
Smallest eigenvalue                        ... 4.584e-04
Time for diagonalization                   ...    0.002 sec
Threshold for overlap eigenvalues          ... 1.000e-08
Number of eigenvalues below threshold      ... 0
Time for construction of square roots      ...    0.002 sec
Total time needed                          ...    0.004 sec

---------------------
INITIAL GUESS: MOREAD
---------------------
Guess MOs are being read from file: opt.gbw
Input Geometry matches current geometry (good)
Input basis set matches current basis set (good)
MOs were renormalized
MOs were reorthogonalized (Cholesky)
                      ------------------
                      INITIAL GUESS DONE (   0.0 sec)
                      ------------------
-------------------
DFT GRID GENERATION
-------------------

General Integration Accuracy     IntAcc      ...  4.340
Radial Grid Type                 RadialGrid  ... Gauss-Chebyshev
Angular Grid (max. acc.)         AngularGrid ... Lebedev-110
Angular grid pruning method      GridPruning ... 3 (G Style)
Weight generation scheme         WeightScheme... Becke
Basis function cutoff            BFCut       ...    1.0000e-11
Integration weight cutoff        WCut        ...    1.0000e-14
Grids for H and He will be reduced by one unit

# of grid points (after initial pruning)     ...   4152 (   0.0 sec)
# of grid points (after weights+screening)   ...   4127 (   0.0 sec)
nearest neighbour list constructed           ...    0.0 sec
Grid point re-assignment to atoms done       ...    0.0 sec
Grid point division into batches done        ...    0.0 sec
Reduced shell lists constructed in    0.0 sec

Total number of grid points                  ...     4127
Total number of batches                      ...       66
Average number of points per batch           ...       62
Average number of grid points per atom       ...     1376
Average number of shells per batch           ...    22.60 (86.91%)
Average number of basis functions per batch  ...    61.67 (90.69%)
Average number of large shells per batch     ...    20.94 (92.67%)
Average number of large basis fcns per batch ...    57.33 (92.96%)
Maximum spatial batch extension              ...  19.94, 25.60, 20.05 au
Average spatial batch extension              ...   5.71,  7.26,  6.95 au

Time for grid setup =    0.033 sec

--------------
SCF ITERATIONS
--------------
ITER       Energy         Delta-E        Max-DP      RMS-DP      [F,P]     Damp
               ***  Starting incremental Fock matrix formation  ***
                      *** Initiating the SOSCF procedure ***
                      *** Re-Reading the Fockian *** 
                      *** Removing any level shift *** 
ITER      Energy       Delta-E        Grad      Rot      Max-DP    RMS-DP
  0    -93.34729829 -93.3472982938  0.000051  0.000051  0.000042  0.000003
               *** Restarting incremental Fock matrix formation ***
  1    -93.34729830  -0.0000000095  0.000020  0.000068  0.000039  0.000002
  2    -93.34729828   0.0000000202  0.000073  0.000054  0.000032  0.000002
                  ***Gradient check signals convergence***
              ***Rediagonalizing the Fockian in SOSCF/NRSCF***

               *****************************************************
               *                     SUCCESS                       *
               *           SCF CONVERGED AFTER   3 CYCLES          *
               *****************************************************

Setting up the final grid:

General Integration Accuracy     IntAcc      ...  4.670
Radial Grid Type                 RadialGrid  ... Gauss-Chebyshev
Angular Grid (max. acc.)         AngularGrid ... Lebedev-302
Angular grid pruning method      GridPruning ... 3 (G Style)
Weight generation scheme         WeightScheme... Becke
Basis function cutoff            BFCut       ...    1.0000e-11
Integration weight cutoff        WCut        ...    1.0000e-14
Grids for H and He will be reduced by one unit

# of grid points (after initial pruning)     ...  15818 (   0.0 sec)
# of grid points (after weights+screening)   ...  15675 (   0.0 sec)
nearest neighbour list constructed           ...    0.0 sec
Grid point re-assignment to atoms done       ...    0.0 sec
Grid point division into batches done        ...    0.1 sec
Reduced shell lists constructed in    0.2 sec

Total number of grid points                  ...    15675
Total number of batches                      ...      246
Average number of points per batch           ...       63
Average number of grid points per atom       ...     5225
Average number of shells per batch           ...    20.43 (78.57%)
Average number of basis functions per batch  ...    55.38 (81.45%)
Average number of large shells per batch     ...    18.51 (90.61%)
Average number of large basis fcns per batch ...    50.45 (91.08%)
Maximum spatial batch extension              ...  18.87, 20.84, 24.37 au
Average spatial batch extension              ...   3.46,  4.25,  4.19 au

Final grid set up in    0.2 sec
Final integration                            ... done (   0.2 sec)
Change in XC energy                          ...     0.000056955
Integrated number of electrons               ...    13.999994271
Previous integrated no of electrons          ...    14.000176352

----------------
TOTAL SCF ENERGY
----------------

Total Energy       :          -93.34724135 Eh           -2540.10757 eV

Components:
Nuclear Repulsion  :           23.79419026 Eh             647.47283 eV
Electronic Energy  :         -117.14143161 Eh           -3187.58041 eV
One Electron Energy:         -172.67146215 Eh           -4698.62936 eV
Two Electron Energy:           55.53003054 Eh            1511.04895 eV

Virial components:
Potential Energy   :         -186.31507178 Eh           -5069.89085 eV
Kinetic Energy     :           92.96783043 Eh            2529.78328 eV
Virial Ratio       :            2.00408110


DFT components:
N(Alpha)           :        6.999997135409 electrons
N(Beta)            :        6.999997135409 electrons
N(Total)           :       13.999994270817 electrons
E(X)               :      -12.043311601075 Eh       
E(C)               :       -0.440053309651 Eh       
E(XC)              :      -12.483364910726 Eh       

---------------
SCF CONVERGENCE
---------------

  Last Energy change         ...   -2.2010e-08  Tolerance :   1.0000e-08
  Last MAX-Density change    ...    1.7252e-06  Tolerance :   1.0000e-07
  Last RMS-Density change    ...    1.2811e-07  Tolerance :   5.0000e-09
  Last Orbital Gradient      ...    7.3915e-07  Tolerance :   1.0000e-05
  Last Orbital Rotation      ...    1.3069e-06  Tolerance :   1.0000e-05

             **** THE GBW FILE WAS UPDATED (opt.gbw) ****
             **** DENSITY FILE WAS UPDATED (opt.scfp.tmp) ****
             **** ENERGY FILE WAS UPDATED (opt.en.tmp) ****
----------------
ORBITAL ENERGIES
----------------

  NO   OCC          E(Eh)            E(eV) 
   0   2.0000     -14.008434      -381.1889 
   1   2.0000      -9.937783      -270.4208 
   2   2.0000      -0.842949       -22.9378 
   3   2.0000      -0.553683       -15.0665 
   4   2.0000      -0.334524        -9.1029 
   5   2.0000      -0.329833        -8.9752 
   6   2.0000      -0.329670        -8.9708 
   7   0.0000      -0.035810        -0.9744 
   8   0.0000      -0.035535        -0.9670 
   9   0.0000       0.020993         0.5712 
  10   0.0000       0.075328         2.0498 
  11   0.0000       0.189323         5.1517 
  12   0.0000       0.193040         5.2529 
  13   0.0000       0.246681         6.7125 
  14   0.0000       0.323360         8.7991 
  15   0.0000       0.353898         9.6301 
  16   0.0000       0.395384        10.7589 
  17   0.0000       0.396900        10.8002 
  18   0.0000       0.588964        16.0265 
  19   0.0000       0.589518        16.0416 
  20   0.0000       0.600216        16.3327 
  21   0.0000       0.717653        19.5283 
  22   0.0000       0.720542        19.6069 
  23   0.0000       0.720807        19.6142 
  24   0.0000       1.125164        30.6173 
  25   0.0000       1.125411        30.6240 
  26   0.0000       1.159464        31.5506 
  27   0.0000       1.292671        35.1754 
  28   0.0000       1.323448        36.0128 
  29   0.0000       1.324295        36.0359 
  30   0.0000       1.408647        38.3312 
  31   0.0000       1.414747        38.4972 
  32   0.0000       1.414770        38.4979 
  33   0.0000       1.727197        46.9994 
  34   0.0000       1.888653        51.3929 
  35   0.0000       1.889959        51.4284 
  36   0.0000       2.148366        58.4600 
  37   0.0000       2.291928        62.3665 
  38   0.0000       2.293643        62.4132 
  39   0.0000       2.318473        63.0888 
  40   0.0000       2.560595        69.6773 
  41   0.0000       2.561593        69.7045 
  42   0.0000       2.640985        71.8649 
  43   0.0000       2.642092        71.8950 
  44   0.0000       2.721438        74.0541 
  45   0.0000       2.798779        76.1586 
  46   0.0000       2.799258        76.1717 
  47   0.0000       2.863122        77.9095 
  48   0.0000       2.864987        77.9603 
  49   0.0000       3.160694        86.0069 
  50   0.0000       3.367117        91.6239 
  51   0.0000       3.367635        91.6380 
  52   0.0000       3.667144        99.7881 
  53   0.0000       3.854486       104.8859 
  54   0.0000       3.854767       104.8935 
  55   0.0000       4.321847       117.6034 
  56   0.0000       4.322093       117.6101 
  57   0.0000       4.476904       121.8228 
  58   0.0000       4.477300       121.8335 
  59   0.0000       4.526868       123.1823 
  60   0.0000       4.849409       131.9591 
  61   0.0000       4.849677       131.9664 
  62   0.0000       5.261041       143.1602 
  63   0.0000       5.359095       145.8284 
  64   0.0000       5.359729       145.8456 
  65   0.0000       5.933103       161.4479 
  66   0.0000      21.953717       597.3910 
  67   0.0000      31.657886       861.4549 

                    ********************************
                    * MULLIKEN POPULATION ANALYSIS *
                    ********************************

-----------------------
MULLIKEN ATOMIC CHARGES
-----------------------
   0 N :    0.016483
   1 C :   -0.200310
   2 H :    0.183827
Sum of atomic charges:   -0.0000000

--------------------------------
MULLIKEN REDUCED ORBITAL CHARGES
--------------------------------
  0 N s       :     3.649110  s :     3.649110
      pz      :     1.046963  p :     3.289884
      px      :     1.210605
      py      :     1.032316
      dz2     :     0.005012  d :     0.042423
      dxz     :     0.013744
      dyz     :     0.001467
      dx2y2   :     0.005906
      dxy     :     0.016294
      f0      :     0.000125  f :     0.002100
      f+1     :     0.000500
      f-1     :     0.000024
      f+2     :     0.000337
      f-2     :     0.000198
      f+3     :     0.000093
      f-3     :     0.000824
  1 C s       :     3.244020  s :     3.244020
      pz      :     0.938976  p :     2.908765
      px      :     1.039785
      py      :     0.930003
      dz2     :     0.004233  d :     0.034839
      dxz     :     0.010545
      dyz     :     0.000913
      dx2y2   :     0.009027
      dxy     :     0.010120
      f0      :     0.001007  f :     0.012686
      f+1     :     0.002730
      f-1     :     0.000099
      f+2     :     0.002388
      f-2     :     0.000863
      f+3     :     0.002009
      f-3     :     0.003589
  2 H s       :     0.794557  s :     0.794557
      pz      :     0.004161  p :     0.021616
      px      :     0.014019
      py      :     0.003436


                     *******************************
                     * LOEWDIN POPULATION ANALYSIS *
                     *******************************

----------------------
LOEWDIN ATOMIC CHARGES
----------------------
   0 N :    0.053677
   1 C :   -0.178515
   2 H :    0.124838

-------------------------------
LOEWDIN REDUCED ORBITAL CHARGES
-------------------------------
  0 N s       :     3.326446  s :     3.326446
      pz      :     1.036005  p :     3.493866
      px      :     1.462176
      py      :     0.995685
      dz2     :     0.013849  d :     0.110174
      dxz     :     0.032462
      dyz     :     0.002545
      dx2y2   :     0.032978
      dxy     :     0.028340
      f0      :     0.001491  f :     0.015836
      f+1     :     0.003000
      f-1     :     0.000100
      f+2     :     0.003243
      f-2     :     0.000838
      f+3     :     0.003663
      f-3     :     0.003501
  1 C s       :     2.956694  s :     2.956694
      pz      :     0.922879  p :     2.956251
      px      :     1.131175
      py      :     0.902196
      dz2     :     0.027836  d :     0.212863
      dxz     :     0.057995
      dyz     :     0.003445
      dx2y2   :     0.085202
      dxy     :     0.038385
      f0      :     0.004933  f :     0.052707
      f+1     :     0.009989
      f-1     :     0.000335
      f+2     :     0.010768
      f-2     :     0.002821
      f+3     :     0.012071
      f-3     :     0.011790
  2 H s       :     0.807766  s :     0.807766
      pz      :     0.013869  p :     0.067396
      px      :     0.042431
      py      :     0.011095


                      *****************************
                      * MAYER POPULATION ANALYSIS *
                      *****************************

  NA   - Mulliken gross atomic population
  ZA   - Total nuclear charge
  QA   - Mulliken gross atomic charge
  VA   - Mayer's total valence
  BVA  - Mayer's bonded valence
  FA   - Mayer's free valence

  ATOM       NA         ZA         QA         VA         BVA        FA
  0 N      6.9835     7.0000     0.0165     3.1351     3.1351     0.0000
  1 C      6.2003     6.0000    -0.2003     4.0447     4.0447    -0.0000
  2 H      0.8162     1.0000     0.1838     0.9620     0.9620    -0.0000

  Mayer bond orders larger than 0.1
B(  0-N ,  1-C ) :   3.1088 B(  1-C ,  2-H ) :   0.9358 

-------
TIMINGS
-------

Total SCF time: 0 days 0 hours 0 min 1 sec 

Total time                  ....       1.762 sec
Sum of individual times     ....       1.729 sec  ( 98.2%)

Fock matrix formation       ....       1.480 sec  ( 84.0%)
  Split-RI-J                ....       0.596 sec  ( 40.3% of F)
  XC integration            ....       0.622 sec  ( 42.0% of F)
    Basis function eval.    ....       0.137 sec  ( 22.0% of XC)
    Density eval.           ....       0.336 sec  ( 54.1% of XC)
    XC-Functional eval.     ....       0.037 sec  (  5.9% of XC)
    XC-Potential eval.      ....       0.077 sec  ( 12.5% of XC)
Diagonalization             ....       0.001 sec  (  0.1%)
Density matrix formation    ....       0.000 sec  (  0.0%)
Population analysis         ....       0.005 sec  (  0.3%)
Initial guess               ....       0.001 sec  (  0.0%)
Orbital Transformation      ....       0.000 sec  (  0.0%)
Orbital Orthonormalization  ....       0.000 sec  (  0.0%)
DIIS solution               ....       0.000 sec  (  0.0%)
SOSCF solution              ....       0.039 sec  (  2.2%)
Grid generation             ....       0.204 sec  ( 11.6%)

-------------------------   --------------------
FINAL SINGLE POINT ENERGY       -93.347241350287
-------------------------   --------------------

                                *** OPTIMIZATION RUN DONE ***

                            ***************************************
                            *     ORCA property calculations      *
                            ***************************************

                                    ---------------------
                                    Active property flags
                                    ---------------------
   (+) Dipole Moment


------------------------------------------------------------------------------
                       ORCA ELECTRIC PROPERTIES CALCULATION
------------------------------------------------------------------------------

Dipole Moment Calculation                       ... on
Quadrupole Moment Calculation                   ... off
Polarizability Calculation                      ... off
GBWName                                         ... opt.gbw
Electron density file                           ... opt.scfp.tmp
The origin for moment calculation is the CENTER OF MASS  = (-3.931796,  2.183795 -2.074065)

-------------
DIPOLE MOMENT
-------------
                                X             Y             Z
Electronic contribution:     -0.36237      -0.01101      -0.10483
Nuclear contribution   :      1.46698       0.04680       0.43785
                        -----------------------------------------
Total Dipole Moment    :      1.10461       0.03578       0.33302
                        -----------------------------------------
Magnitude (a.u.)       :      1.15427
Magnitude (Debye)      :      2.93392


Timings for individual modules:

Sum of individual times         ...       57.121 sec (=   0.952 min)
GTO integral calculation        ...        3.553 sec (=   0.059 min)   6.2 %
SCF iterations                  ...       41.004 sec (=   0.683 min)  71.8 %
SCF Gradient evaluation         ...       12.133 sec (=   0.202 min)  21.2 %
Geometry relaxation             ...        0.432 sec (=   0.007 min)   0.8 %
                             ****ORCA TERMINATED NORMALLY****
TOTAL RUN TIME: 0 days 0 hours 0 minutes 57 seconds 432 msec
