
                                 *****************
                                 * O   R   C   A *
                                 *****************

           --- An Ab Initio, DFT and Semiempirical electronic structure package ---

                  #######################################################
                  #                        -***-                        #
                  #  Department of molecular theory and spectroscopy    #
                  #              Directorship: Frank Neese              #
                  # Max Planck Institute for Chemical Energy Conversion #
                  #                  D-45470 Muelheim/Ruhr              #
                  #                       Germany                       #
                  #                                                     #
                  #                  All rights reserved                #
                  #                        -***-                        #
                  #######################################################


                         Program Version 4.0.1.2 - RELEASE -


 With contributions from (in alphabetic order):
   Daniel Aravena         : Magnetic Properties
   Michael Atanasov       : Ab Initio Ligand Field Theory
   Ute Becker             : Parallelization
   Martin Brehm           : Molecular dynamics
   Dmytro Bykov           : SCF Hessian
   Vijay G. Chilkuri      : MRCI spin determinant printing
   Dipayan Datta          : RHF DLPNO-CCSD density
   Achintya Kumar Dutta   : EOM-CC, STEOM-CC
   Dmitry Ganyushin       : Spin-Orbit,Spin-Spin,Magnetic field MRCI
   Yang Guo               : DLPNO-NEVPT2, CIM, IAO-localization
   Andreas Hansen         : Spin unrestricted coupled pair/coupled cluster methods
   Lee Huntington         : MR-EOM, pCC
   Robert Izsak           : Overlap fitted RIJCOSX, COSX-SCS-MP3, EOM
   Christian Kollmar      : KDIIS, OOCD, Brueckner-CCSD(T), CCSD density
   Simone Kossmann        : Meta GGA functionals, TD-DFT gradient, OOMP2, MP2 Hessian
   Martin Krupicka        : AUTO-CI
   Dagmar Lenk            : GEPOL surface
   Dimitrios Liakos       : Extrapolation schemes; parallel MDCI
   Dimitrios Manganas     : ROCIS; embedding schemes
   Dimitrios Pantazis     : SARC Basis sets
   Taras Petrenko         : DFT Hessian,TD-DFT gradient, ASA, ECA, R-Raman, ABS, FL, XAS/XES, NRVS
   Peter Pinski           : DLPNO-MP2
   Christoph Reimann      : Effective Core Potentials
   Marius Retegan         : Local ZFS, SOC
   Christoph Riplinger    : Optimizer, TS searches, QM/MM, DLPNO-CCSD(T), (RO)-DLPNO pert. Triples
   Tobias Risthaus        : Range-separated hybrids, TD-DFT gradient, RPA, STAB
   Michael Roemelt        : Restricted open shell CIS
   Masaaki Saitow         : Open-shell DLPNO
   Barbara Sandhoefer     : DKH picture change effects
   Kantharuban Sivalingam : CASSCF convergence, NEVPT2, FIC-MRCI
   Georgi Stoychev        : AutoAux
   Boris Wezisla          : Elementary symmetry handling
   Frank Wennmohs         : Technical directorship


 We gratefully acknowledge several colleagues who have allowed us to
 interface, adapt or use parts of their codes:
   Stefan Grimme, W. Hujo, H. Kruse,             : VdW corrections, initial TS optimization,
                  C. Bannwarth                     DFT functionals, gCP, sTDA/sTD-DF
   Ed Valeev                                     : LibInt (2-el integral package), F12 methods
   Garnet Chan, S. Sharma, J. Yang, R. Olivares  : DMRG
   Ulf Ekstrom                                   : XCFun DFT Library
   Mihaly Kallay                                 : mrcc  (arbitrary order and MRCC methods)
   Andreas Klamt, Michael Diedenhofen            : otool_cosmo (COSMO solvation model)
   Jiri Pittner, Ondrej Demel                    : Mk-CCSD
   Frank Weinhold                                : gennbo (NPA and NBO analysis)
   Christopher J. Cramer and Donald G. Truhlar   : smd solvation model


 Your calculation uses the libint2 library for the computation of 2-el integrals
 For citations please refer to: http://libint.valeyev.net

 This ORCA versions uses:
   CBLAS   interface :  Fast vector & matrix operations
   LAPACKE interface :  Fast linear algebra routines
   SCALAPACK package :  Parallel linear algebra routines




*****************************************
The coordinations will be read from file: opt.xyz
*****************************************


Your calculation utilizes the basis: def2-TZVP
   F. Weigend and R. Ahlrichs, Phys. Chem. Chem. Phys. 7, 3297 (2005).

Your calculation utilizes the auxiliary basis: def2/J
   F. Weigend, Phys. Chem. Chem. Phys. 8, 1057 (2006).

================================================================================
                                        WARNINGS
                       Please study these warnings very carefully!
================================================================================

Warning: TCutStore was < 0. Adjusted to Thresh (uncritical)

INFO   : the flag for use of LIBINT has been found!

================================================================================
                                       INPUT FILE
================================================================================
NAME = freq.inp
|  1> # avogadro generated ORCA input file 
|  2> # Basic Mode
|  3> # 
|  4> ! PBE FREQ def2-TZVP
|  5> 
|  6> * xyzfile 0 1 opt.xyz
|  7> 
|  8> 
|  9>                          ****END OF INPUT****
================================================================================

                       ****************************
                       * Single Point Calculation *
                       ****************************

---------------------------------
CARTESIAN COORDINATES (ANGSTROEM)
---------------------------------
  O      0.326748   -0.226802    0.188898
  H     -0.454623    0.344989    0.261997
  H      0.966335    0.302793   -0.314435

----------------------------
CARTESIAN COORDINATES (A.U.)
----------------------------
  NO LB      ZA    FRAG     MASS         X           Y           Z
   0 O     8.0000    0    15.999    0.617464   -0.428594    0.356965
   1 H     1.0000    0     1.008   -0.859113    0.651935    0.495102
   2 H     1.0000    0     1.008    1.826108    0.572196   -0.594195

--------------------------------
INTERNAL COORDINATES (ANGSTROEM)
--------------------------------
 O      0   0   0     0.000000000000     0.00000000     0.00000000
 H      1   0   0     0.970994002085     0.00000000     0.00000000
 H      1   2   0     0.971022902969   104.35302259     0.00000000

---------------------------
INTERNAL COORDINATES (A.U.)
---------------------------
 O      0   0   0     0.000000000000     0.00000000     0.00000000
 H      1   0   0     1.834912741620     0.00000000     0.00000000
 H      1   2   0     1.834967356377   104.35302259     0.00000000

---------------------
BASIS SET INFORMATION
---------------------
There are 2 groups of distinct atoms

 Group   1 Type O   : 11s6p2d1f contracted to 5s3p2d1f pattern {62111/411/11/1}
 Group   2 Type H   : 5s1p contracted to 3s1p pattern {311/1}

Atom   0O    basis set group =>   1
Atom   1H    basis set group =>   2
Atom   2H    basis set group =>   2
-------------------------------
AUXILIARY BASIS SET INFORMATION
-------------------------------
There are 2 groups of distinct atoms

 Group   1 Type O   : 12s5p4d2f1g contracted to 6s4p3d1f1g pattern {711111/2111/211/2/1}
 Group   2 Type H   : 5s2p1d contracted to 3s1p1d pattern {311/2/1}

Atom   0O    basis set group =>   1
Atom   1H    basis set group =>   2
Atom   2H    basis set group =>   2
------------------------------------------------------------------------------
                           ORCA GTO INTEGRAL CALCULATION
                           -- RI-GTO INTEGRALS CHOSEN --
------------------------------------------------------------------------------

                         BASIS SET STATISTICS AND STARTUP INFO

Gaussian basis set:
 # of primitive gaussian shells          ...   32
 # of primitive gaussian functions       ...   62
 # of contracted shells                  ...   19
 # of contracted basis functions         ...   43
 Highest angular momentum                ...    3
 Maximum contraction depth               ...    6
Auxiliary gaussian basis set:
 # of primitive gaussian shells          ...   40
 # of primitive gaussian functions       ...  102
 # of contracted shells                  ...   25
 # of contracted aux-basis functions     ...   71
 Highest angular momentum                ...    4
 Maximum contraction depth               ...    7
Ratio of auxiliary to basis functions    ...  1.65
Integral package used                  ... LIBINT
 One Electron integrals                  ... done
 Ordering auxiliary basis shells         ... done
 Integral threshhold             Thresh  ...  1.000e-10
 Primitive cut-off               TCut    ...  1.000e-11
 Pre-screening matrix                    ... done
 Shell pair data                         ... 
 Ordering of the shell pairs             ... done (   0.000 sec) 190 of 190 pairs
 Determination of significant pairs      ... done (   0.000 sec)
 Creation of shell pair data             ... done (   0.000 sec)
 Storage of shell pair data              ... done (   0.001 sec)
 Shell pair data done in (   0.002 sec)
 Computing two index integrals           ... done
 Cholesky decomposition of the V-matrix  ... done


Timings:
 Total evaluation time                   ...   0.165 sec (  0.003 min)
 One electron matrix time                ...   0.006 sec (  0.000 min) =  3.9%
 Schwartz matrix evaluation time         ...   0.132 sec (  0.002 min) = 79.7%
 Two index repulsion integral time       ...   0.001 sec (  0.000 min) =  0.7%
 Cholesky decomposition of V             ...   0.001 sec (  0.000 min) =  0.7%
 Three index repulsion integral time     ...   0.000 sec (  0.000 min) =  0.0%

-------------------------------------------------------------------------------
                                 ORCA SCF
-------------------------------------------------------------------------------

------------
SCF SETTINGS
------------
Hamiltonian:
 Density Functional     Method          .... DFT(GTOs)
 Exchange Functional    Exchange        .... PBE
   PBE kappa parameter   XKappa         ....  0.804000
   PBE mue parameter    XMuePBE         ....  0.219520
 Correlation Functional Correlation     .... PBE
   PBE beta parameter  CBetaPBE         ....  0.066725
 LDA part of GGA corr.  LDAOpt          .... PW91-LDA
 Gradients option       PostSCFGGA      .... off
   NL short-range parameter             ....  6.400000
 RI-approximation to the Coulomb term is turned on
   Number of auxiliary basis functions  .... 71


General Settings:
 Integral files         IntName         .... freq
 Hartree-Fock type      HFTyp           .... RHF
 Total Charge           Charge          ....    0
 Multiplicity           Mult            ....    1
 Number of Electrons    NEL             ....   10
 Basis Dimension        Dim             ....   43
 Nuclear Repulsion      ENuc            ....      9.0645950969 Eh

Convergence Acceleration:
 DIIS                   CNVDIIS         .... on
   Start iteration      DIISMaxIt       ....    12
   Startup error        DIISStart       ....  0.200000
   # of expansion vecs  DIISMaxEq       ....     5
   Bias factor          DIISBfac        ....   1.050
   Max. coefficient     DIISMaxC        ....  10.000
 Newton-Raphson         CNVNR           .... off
 SOSCF                  CNVSOSCF        .... on
   Start iteration      SOSCFMaxIt      ....   150
   Startup grad/error   SOSCFStart      ....  0.003300
 Level Shifting         CNVShift        .... on
   Level shift para.    LevelShift      ....    0.2500
   Turn off err/grad.   ShiftErr        ....    0.0010
 Zerner damping         CNVZerner       .... off
 Static damping         CNVDamp         .... on
   Fraction old density DampFac         ....    0.7000
   Max. Damping (<1)    DampMax         ....    0.9800
   Min. Damping (>=0)   DampMin         ....    0.0000
   Turn off err/grad.   DampErr         ....    0.1000
 Fernandez-Rico         CNVRico         .... off

SCF Procedure:
 Maximum # iterations   MaxIter         ....   125
 SCF integral mode      SCFMode         .... Direct
   Integral package                     .... LIBINT
 Reset frequeny         DirectResetFreq ....    20
 Integral Threshold     Thresh          ....  1.000e-10 Eh
 Primitive CutOff       TCut            ....  1.000e-11 Eh

Convergence Tolerance:
 Convergence Check Mode ConvCheckMode   .... Total+1el-Energy
 Convergence forced     ConvForced      .... 0
 Energy Change          TolE            ....  1.000e-06 Eh
 1-El. energy change                    ....  1.000e-03 Eh
 Orbital Gradient       TolG            ....  5.000e-05
 Orbital Rotation angle TolX            ....  5.000e-05
 DIIS Error             TolErr          ....  1.000e-06


Diagonalization of the overlap matrix:
Smallest eigenvalue                        ... 8.806e-03
Time for diagonalization                   ...    0.001 sec
Threshold for overlap eigenvalues          ... 1.000e-08
Number of eigenvalues below threshold      ... 0
Time for construction of square roots      ...    0.002 sec
Total time needed                          ...    0.002 sec

-------------------
DFT GRID GENERATION
-------------------

General Integration Accuracy     IntAcc      ...  4.340
Radial Grid Type                 RadialGrid  ... Gauss-Chebyshev
Angular Grid (max. acc.)         AngularGrid ... Lebedev-110
Angular grid pruning method      GridPruning ... 3 (G Style)
Weight generation scheme         WeightScheme... Becke
Basis function cutoff            BFCut       ...    1.0000e-10
Integration weight cutoff        WCut        ...    1.0000e-14
Grids for H and He will be reduced by one unit

# of grid points (after initial pruning)     ...   3304 (   0.0 sec)
# of grid points (after weights+screening)   ...   3278 (   0.0 sec)
nearest neighbour list constructed           ...    0.0 sec
Grid point re-assignment to atoms done       ...    0.0 sec
Grid point division into batches done        ...    0.0 sec
Reduced shell lists constructed in    0.0 sec

Total number of grid points                  ...     3278
Total number of batches                      ...       53
Average number of points per batch           ...       61
Average number of grid points per atom       ...     1093
Average number of shells per batch           ...    16.94 (89.18%)
Average number of basis functions per batch  ...    39.02 (90.74%)
Average number of large shells per batch     ...    15.98 (94.32%)
Average number of large basis fcns per batch ...    36.83 (94.40%)
Maximum spatial batch extension              ...  14.79, 21.59, 21.59 au
Average spatial batch extension              ...   5.04,  6.14,  5.66 au

Time for grid setup =    0.022 sec

------------------------------
INITIAL GUESS: MODEL POTENTIAL
------------------------------
Loading Hartree-Fock densities                     ... done
Calculating cut-offs                               ... done
Setting up the integral package                    ... done
Initializing the effective Hamiltonian             ... done
Starting the Coulomb interaction                   ... done (   0.0 sec)
Reading the grid                                   ... done
Mapping shells                                     ... done
Starting the XC term evaluation                    ... done (   0.0 sec)
  promolecular density results
     # of electrons  =     10.000671134
     EX              =     -8.725928171
     EC              =     -0.315815745
     EX+EC           =     -9.041743917
Transforming the Hamiltonian                       ... done (   0.0 sec)
Diagonalizing the Hamiltonian                      ... done (   0.0 sec)
Back transforming the eigenvectors                 ... done (   0.0 sec)
Now organizing SCF variables                       ... done
                      ------------------
                      INITIAL GUESS DONE (   0.2 sec)
                      ------------------
--------------
SCF ITERATIONS
--------------
ITER       Energy         Delta-E        Max-DP      RMS-DP      [F,P]     Damp
               ***  Starting incremental Fock matrix formation  ***
  0    -76.2812238016   0.000000000000 0.05678415  0.00442542  0.3239611 0.7000
  1    -76.3318871627  -0.050663361087 0.02960252  0.00245331  0.1032653 0.7000
                               ***Turning on DIIS***
  2    -76.3443584789  -0.012471316174 0.02407147  0.00222366  0.0094725 0.0000
  3    -76.3739558677  -0.029597388763 0.01694402  0.00128279  0.0586260 0.0000
  4    -76.3771506378  -0.003194770138 0.00437797  0.00034099  0.0061784 0.0000
                      *** Initiating the SOSCF procedure ***
                           *** Shutting down DIIS ***
                      *** Re-Reading the Fockian *** 
                      *** Removing any level shift *** 
ITER      Energy       Delta-E        Grad      Rot      Max-DP    RMS-DP
  5    -76.37725347  -0.0001028297  0.000936  0.000936  0.001359  0.000105
               *** Restarting incremental Fock matrix formation ***
  6    -76.37725933  -0.0000058592  0.000388  0.001178  0.001229  0.000076
  7    -76.37725997  -0.0000006404  0.000179  0.000167  0.000251  0.000020
  8    -76.37726001  -0.0000000407  0.000168  0.000261  0.000216  0.000019
                 **** Energy Check signals convergence ****
              ***Rediagonalizing the Fockian in SOSCF/NRSCF***

               *****************************************************
               *                     SUCCESS                       *
               *           SCF CONVERGED AFTER   9 CYCLES          *
               *****************************************************

Setting up the final grid:

General Integration Accuracy     IntAcc      ...  4.670
Radial Grid Type                 RadialGrid  ... Gauss-Chebyshev
Angular Grid (max. acc.)         AngularGrid ... Lebedev-302
Angular grid pruning method      GridPruning ... 3 (G Style)
Weight generation scheme         WeightScheme... Becke
Basis function cutoff            BFCut       ...    1.0000e-10
Integration weight cutoff        WCut        ...    1.0000e-14
Grids for H and He will be reduced by one unit

# of grid points (after initial pruning)     ...  13000 (   0.0 sec)
# of grid points (after weights+screening)   ...  12902 (   0.0 sec)
nearest neighbour list constructed           ...    0.0 sec
Grid point re-assignment to atoms done       ...    0.0 sec
Grid point division into batches done        ...    0.0 sec
Reduced shell lists constructed in    0.1 sec

Total number of grid points                  ...    12902
Total number of batches                      ...      203
Average number of points per batch           ...       63
Average number of grid points per atom       ...     4301
Average number of shells per batch           ...    15.42 (81.17%)
Average number of basis functions per batch  ...    35.21 (81.87%)
Average number of large shells per batch     ...    14.42 (93.52%)
Average number of large basis fcns per batch ...    32.99 (93.71%)
Maximum spatial batch extension              ...  16.88, 16.88, 21.92 au
Average spatial batch extension              ...   3.15,  3.39,  3.46 au

Final grid set up in    0.1 sec
Final integration                            ... done (   0.1 sec)
Change in XC energy                          ...     0.000369843
Integrated number of electrons               ...    10.000004144
Previous integrated no of electrons          ...    10.000441840

----------------
TOTAL SCF ENERGY
----------------

Total Energy       :          -76.37689036 Eh           -2078.32085 eV

Components:
Nuclear Repulsion  :            9.06459510 Eh             246.66017 eV
Electronic Energy  :          -85.44148546 Eh           -2324.98102 eV
One Electron Energy:         -122.83118978 Eh           -3342.40660 eV
Two Electron Energy:           37.38970432 Eh            1017.42558 eV

Virial components:
Potential Energy   :         -152.49981876 Eh           -4149.73104 eV
Kinetic Energy     :           76.12292840 Eh            2071.41019 eV
Virial Ratio       :            2.00333621


DFT components:
N(Alpha)           :        5.000002072036 electrons
N(Beta)            :        5.000002072036 electrons
N(Total)           :       10.000004144071 electrons
E(X)               :       -8.915638993440 Eh       
E(C)               :       -0.325283855026 Eh       
E(XC)              :       -9.240922848466 Eh       

---------------
SCF CONVERGENCE
---------------

  Last Energy change         ...   -1.9418e-07  Tolerance :   1.0000e-06
  Last MAX-Density change    ...    3.0313e-05  Tolerance :   1.0000e-05
  Last RMS-Density change    ...    2.2376e-06  Tolerance :   1.0000e-06
  Last Orbital Gradient      ...    1.3929e-05  Tolerance :   5.0000e-05
  Last Orbital Rotation      ...    3.5967e-05  Tolerance :   5.0000e-05

             **** THE GBW FILE WAS UPDATED (freq.gbw) ****
             **** DENSITY FILE WAS UPDATED (freq.scfp.tmp) ****
             **** ENERGY FILE WAS UPDATED (freq.en.tmp) ****
----------------
ORBITAL ENERGIES
----------------

  NO   OCC          E(Eh)            E(eV) 
   0   2.0000     -18.745434      -510.0892 
   1   2.0000      -0.920001       -25.0345 
   2   2.0000      -0.474511       -12.9121 
   3   2.0000      -0.333127        -9.0648 
   4   2.0000      -0.255679        -6.9574 
   5   0.0000      -0.003526        -0.0960 
   6   0.0000       0.070834         1.9275 
   7   0.0000       0.325604         8.8601 
   8   0.0000       0.375460        10.2168 
   9   0.0000       0.398379        10.8404 
  10   0.0000       0.399949        10.8832 
  11   0.0000       0.534518        14.5450 
  12   0.0000       0.565095        15.3770 
  13   0.0000       1.102231        29.9932 
  14   0.0000       1.128479        30.7075 
  15   0.0000       1.232771        33.5454 
  16   0.0000       1.475639        40.1542 
  17   0.0000       1.576238        42.8916 
  18   0.0000       1.681543        45.7571 
  19   0.0000       1.922347        52.3097 
  20   0.0000       1.983511        53.9741 
  21   0.0000       2.025293        55.1110 
  22   0.0000       2.220453        60.4216 
  23   0.0000       2.296225        62.4835 
  24   0.0000       2.476606        67.3919 
  25   0.0000       2.504355        68.1470 
  26   0.0000       2.518038        68.5193 
  27   0.0000       2.686753        73.1103 
  28   0.0000       3.544128        96.4406 
  29   0.0000       3.814768       103.8051 
  30   0.0000       4.986392       135.6866 
  31   0.0000       5.087760       138.4450 
  32   0.0000       5.254008       142.9688 
  33   0.0000       5.279903       143.6735 
  34   0.0000       5.333955       145.1443 
  35   0.0000       5.874596       159.8559 
  36   0.0000       6.064183       165.0148 
  37   0.0000       6.174255       168.0100 
  38   0.0000       6.236467       169.7029 
  39   0.0000       6.291101       171.1896 
  40   0.0000       6.747250       183.6020 
  41   0.0000       6.864843       186.8019 
  42   0.0000      42.864568      1166.4042 

                    ********************************
                    * MULLIKEN POPULATION ANALYSIS *
                    ********************************

-----------------------
MULLIKEN ATOMIC CHARGES
-----------------------
   0 O :   -0.623721
   1 H :    0.311489
   2 H :    0.312231
Sum of atomic charges:   -0.0000000

--------------------------------
MULLIKEN REDUCED ORBITAL CHARGES
--------------------------------
  0 O s       :     3.817120  s :     3.817120
      pz      :     1.813571  p :     4.784821
      px      :     1.347051
      py      :     1.624199
      dz2     :     0.003017  d :     0.020541
      dxz     :     0.001763
      dyz     :     0.004822
      dx2y2   :     0.000918
      dxy     :     0.010022
      f0      :     0.000232  f :     0.001239
      f+1     :     0.000237
      f-1     :     0.000122
      f+2     :     0.000064
      f-2     :     0.000299
      f+3     :    -0.000003
      f-3     :     0.000288
  1 H s       :     0.641165  s :     0.641165
      pz      :     0.015407  p :     0.047346
      px      :     0.016673
      py      :     0.015266
  2 H s       :     0.640501  s :     0.640501
      pz      :     0.017632  p :     0.047268
      px      :     0.014798
      py      :     0.014838


                     *******************************
                     * LOEWDIN POPULATION ANALYSIS *
                     *******************************

----------------------
LOEWDIN ATOMIC CHARGES
----------------------
   0 O :   -0.314678
   1 H :    0.157301
   2 H :    0.157377

-------------------------------
LOEWDIN REDUCED ORBITAL CHARGES
-------------------------------
  0 O s       :     3.476074  s :     3.476074
      pz      :     1.780822  p :     4.804131
      px      :     1.373734
      py      :     1.649575
      dz2     :     0.003917  d :     0.032053
      dxz     :     0.004015
      dyz     :     0.005206
      dx2y2   :     0.000457
      dxy     :     0.018459
      f0      :     0.000308  f :     0.002420
      f+1     :     0.000300
      f-1     :     0.000200
      f+2     :     0.000037
      f-2     :     0.000647
      f+3     :     0.000159
      f-3     :     0.000769
  1 H s       :     0.685640  s :     0.685640
      pz      :     0.041487  p :     0.157059
      px      :     0.060017
      py      :     0.055555
  2 H s       :     0.685598  s :     0.685598
      pz      :     0.055972  p :     0.157025
      px      :     0.048225
      py      :     0.052828


                      *****************************
                      * MAYER POPULATION ANALYSIS *
                      *****************************

  NA   - Mulliken gross atomic population
  ZA   - Total nuclear charge
  QA   - Mulliken gross atomic charge
  VA   - Mayer's total valence
  BVA  - Mayer's bonded valence
  FA   - Mayer's free valence

  ATOM       NA         ZA         QA         VA         BVA        FA
  0 O      8.6237     8.0000    -0.6237     1.8259     1.8259     0.0000
  1 H      0.6885     1.0000     0.3115     0.9183     0.9183    -0.0000
  2 H      0.6878     1.0000     0.3122     0.9178     0.9178    -0.0000

  Mayer bond orders larger than 0.1
B(  0-O ,  1-H ) :   0.9132 B(  0-O ,  2-H ) :   0.9127 

-------
TIMINGS
-------

Total SCF time: 0 days 0 hours 0 min 1 sec 

Total time                  ....       1.944 sec
Sum of individual times     ....       1.896 sec  ( 97.5%)

Fock matrix formation       ....       1.579 sec  ( 81.2%)
  Split-RI-J                ....       1.178 sec  ( 74.6% of F)
  XC integration            ....       0.360 sec  ( 22.8% of F)
    Basis function eval.    ....       0.144 sec  ( 40.1% of XC)
    Density eval.           ....       0.045 sec  ( 12.5% of XC)
    XC-Functional eval.     ....       0.056 sec  ( 15.6% of XC)
    XC-Potential eval.      ....       0.052 sec  ( 14.3% of XC)
Diagonalization             ....       0.004 sec  (  0.2%)
Density matrix formation    ....       0.000 sec  (  0.0%)
Population analysis         ....       0.004 sec  (  0.2%)
Initial guess               ....       0.142 sec  (  7.3%)
Orbital Transformation      ....       0.000 sec  (  0.0%)
Orbital Orthonormalization  ....       0.000 sec  (  0.0%)
DIIS solution               ....       0.006 sec  (  0.3%)
SOSCF solution              ....       0.031 sec  (  1.6%)
Grid generation             ....       0.131 sec  (  6.7%)

-------------------------   --------------------
FINAL SINGLE POINT ENERGY       -76.376890359220
-------------------------   --------------------


                            ***************************************
                            *     ORCA property calculations      *
                            ***************************************

                                    ---------------------
                                    Active property flags
                                    ---------------------
   (+) Dipole Moment


------------------------------------------------------------------------------
                       ORCA ELECTRIC PROPERTIES CALCULATION
------------------------------------------------------------------------------

Dipole Moment Calculation                       ... on
Quadrupole Moment Calculation                   ... off
Polarizability Calculation                      ... off
GBWName                                         ... freq.gbw
Electron density file                           ... freq.scfp.tmp
The origin for moment calculation is the CENTER OF MASS  = ( 0.602473, -0.312137  0.311474)

-------------
DIPOLE MOMENT
-------------
                                X             Y             Z
Electronic contribution:      0.02429      -0.17701       0.07275
Nuclear contribution   :     -0.11802       0.91675      -0.35811
                        -----------------------------------------
Total Dipole Moment    :     -0.09373       0.73974      -0.28536
                        -----------------------------------------
Magnitude (a.u.)       :      0.79840
Magnitude (Debye)      :      2.02936


-------------------------------------------------------------------------------
                               ORCA SCF HESSIAN
-------------------------------------------------------------------------------

Hessian of the Kohn-Sham DFT energy:
Kohn-Sham wavefunction type                      ... RKS
Hartree-Fock exchange scaling                    ...    0.000
Number of operators                              ...    1
Number of atoms                                  ...    3
Basis set dimensions                             ...   43
Integral neglect threshold                       ... 1.0e-10
Integral primitive cutoff                        ... 1.0e-11

Setting up DFT Hessian calculations              ... 
Electron density on the grid                     ... found on disk
Electron density on the final grid               ... found on disk
Building xc-kernel on the grid                   ... done   (      0.0 sec)
Building xc-kernel on the final grid             ... done   (      0.0 sec)
                                                     done   (      0.1 sec)

Nuclear repulsion Hessian                        ... done   (      0.0 sec)

----------------------------------------------
Forming right-hand sides of CP-SCF equations     ...
----------------------------------------------
One electron integral derivatives                ... done   (      0.1 sec)
Transforming the overlap derivative matrices     ... done   (      0.0 sec)
Making the Q(x) pseudodensities                  ... done   (      0.0 sec)
Adding the E*S(x)*S(y) terms to the Hessian      ... done   (      0.0 sec)
Calculating energy weighted overlap derivatives  ... done   (      0.0 sec)
Two electron integral derivatives (RI)           ... done   (      0.3 sec)
Exchange-correlation integral derivatives        ... done   (      0.8 sec)
tr(F(y)Q(x)) contribution to the Hessian         ... done   (      0.0 sec)
Response fock operator R(S(x)) (RI)              ... done   (      0.3 sec)
XC Response fock operator R(S(x))                ... done   (      0.2 sec)
tr(F(y)S(x)) contribution to the Hessian         ... done   (      0.0 sec)
Transforming and finalizing RHSs                 ... done   (      0.0 sec)

----------------------------------------------
Solving the CP-SCF equations (RI)                ...
----------------------------------------------
     CP-SCF ITERATION   0: 
     CP-SCF ITERATION   1:      0.000428382339
     CP-SCF ITERATION   2:      0.000015560243
     CP-SCF ITERATION   3:      0.000000885532

                                                 ... done   (      1.2 sec)
Forming perturbed density Hessian contributions  ... done   (      0.0 sec)
Making the perturbed densities                   ... done   (      0.0 sec)
2nd integral derivative contribs (RI)            ... done   (      0.4 sec)
Exchange-correlation Hessian                     ... done   (      1.1 sec)
Dipol derivatives                                ... done   (      0.1 sec)

Total SCF Hessian time: 0 days 0 hours 0 min 4 sec 

Writing the Hessian file to the disk             ... done


-----------------------
VIBRATIONAL FREQUENCIES
-----------------------

   0:         0.00 cm**-1
   1:         0.00 cm**-1
   2:         0.00 cm**-1
   3:         0.00 cm**-1
   4:         0.00 cm**-1
   5:         0.00 cm**-1
   6:      1583.51 cm**-1
   7:      3689.44 cm**-1
   8:      3797.33 cm**-1


------------
NORMAL MODES
------------

These modes are the cartesian displacements weighted by the diagonal matrix
M(i,i)=1/sqrt(m[i]) where m[i] is the mass of the displaced atom
Thus, these vectors are normalized but *not* orthogonal

                  0          1          2          3          4          5    
      0       0.000000   0.000000   0.000000   0.000000   0.000000   0.000000
      1       0.000000   0.000000   0.000000   0.000000   0.000000   0.000000
      2       0.000000   0.000000   0.000000   0.000000   0.000000   0.000000
      3       0.000000   0.000000   0.000000   0.000000   0.000000   0.000000
      4       0.000000   0.000000   0.000000   0.000000   0.000000   0.000000
      5       0.000000   0.000000   0.000000   0.000000   0.000000   0.000000
      6       0.000000   0.000000   0.000000   0.000000   0.000000   0.000000
      7       0.000000   0.000000   0.000000   0.000000   0.000000   0.000000
      8       0.000000   0.000000   0.000000   0.000000   0.000000   0.000000
                   6          7          8    
      0       0.008460  -0.005693   0.065051
      1      -0.065723   0.045663  -0.002069
      2       0.025674  -0.017915  -0.026328
      3       0.325214   0.589274  -0.569364
      4       0.509925  -0.377401   0.416503
      5      -0.362908  -0.079053   0.053330
      6      -0.459491  -0.498914  -0.463129
      7       0.533236  -0.347366  -0.383660
      8      -0.044586   0.363399   0.364545


-----------
IR SPECTRUM
-----------

 Mode    freq (cm**-1)   T**2         TX         TY         TZ
-------------------------------------------------------------------
   6:      1583.51   72.483464  ( -1.015169   7.888494  -3.037195)
   7:      3689.44    1.666801  (  0.140455  -1.187863   0.485856)
   8:      3797.33   33.353153  ( -5.349613   0.163872   2.169778)

The first frequency considered to be a vibration is 6
The total number of vibrations considered is 3


--------------------------
THERMOCHEMISTRY AT 298.15K
--------------------------

Temperature         ... 298.15 K
Pressure            ... 1.00 atm
Total Mass          ... 18.02 AMU

Throughout the following assumptions are being made:
  (1) The electronic state is orbitally nondegenerate
  (2) There are no thermally accessible electronically excited states
  (3) Hindered rotations indicated by low frequency modes are not
      treated as such but are treated as vibrations and this may
      cause some error
  (4) All equations used are the standard statistical mechanics
      equations for an ideal gas
  (5) All vibrations are strictly harmonic

freq.    1583.51  E(vib)   ...       0.00 
freq.    3689.44  E(vib)   ...       0.00 
freq.    3797.33  E(vib)   ...       0.00 

------------
INNER ENERGY
------------

The inner energy is: U= E(el) + E(ZPE) + E(vib) + E(rot) + E(trans)
    E(el)   - is the total energy from the electronic structure calculation
              = E(kin-el) + E(nuc-el) + E(el-el) + E(nuc-nuc)
    E(ZPE)  - the the zero temperature vibrational energy from the frequency calculation
    E(vib)  - the the finite temperature correction to E(ZPE) due to population
              of excited vibrational states
    E(rot)  - is the rotational thermal energy
    E(trans)- is the translational thermal energy

Summary of contributions to the inner energy U:
Electronic energy                ...    -76.37689036 Eh
Zero point energy                ...      0.02066362 Eh      12.97 kcal/mol
Thermal vibrational correction   ...      0.00000347 Eh       0.00 kcal/mol
Thermal rotational correction    ...      0.00141627 Eh       0.89 kcal/mol
Thermal translational correction ...      0.00141627 Eh       0.89 kcal/mol
-----------------------------------------------------------------------
Total thermal energy                    -76.35339073 Eh


Summary of corrections to the electronic energy:
(perhaps to be used in another calculation)
Total thermal correction                  0.00283601 Eh       1.78 kcal/mol
Non-thermal (ZPE) correction              0.02066362 Eh      12.97 kcal/mol
-----------------------------------------------------------------------
Total correction                          0.02349963 Eh      14.75 kcal/mol


--------
ENTHALPY
--------

The enthalpy is H = U + kB*T
                kB is Boltzmann's constant
Total free energy                 ...    -76.35339073 Eh 
Thermal Enthalpy correction       ...      0.00094421 Eh       0.59 kcal/mol
-----------------------------------------------------------------------
Total Enthalpy                    ...    -76.35244652 Eh


Vibrational entropy computed according to the QRRHO of S. Grimme
Chem.Eur.J. 2012 18 9955


-------
ENTROPY
-------

The entropy contributions are T*S = T*(S(el)+S(vib)+S(rot)+S(trans)
     S(el)   - electronic entropy
     S(vib)  - vibrational entropy
     S(rot)  - rotational entropy
     S(trans)- translational entropy
The entropies will be listed as mutliplied by the temperature to get
units of energy

Electronic entropy                ...      0.00000000 Eh      0.00 kcal/mol
Vibrational entropy               ...      0.00000392 Eh      0.00 kcal/mol
Rotational entropy                ...      0.00462175 Eh      2.90 kcal/mol
Translational entropy             ...      0.01644380 Eh     10.32 kcal/mol
-----------------------------------------------------------------------
Final entropy term                ...      0.02106947 Eh     13.22 kcal/mol


CAUTION: The rotational entropy is not quite correctly treated here
         because it includes a symmetry number that is not yet correctly
         implemented in ORCA!
For a nonlinear molecule the correct rotational entropy is:
    S(rot) = R*(ln(qrot/sn)+1.5)
    R    = 8.31441 J/mol/K = 1.987191683e-3 kcal/mol/K
    qrot =   89.4421576
    sn is the rotational symmetry number. We have assumed 3 here
       if it is different for your molecule then you should correct
       the printed rotational entropy by manually evaluating the equation
       as given above

For convenience we print out the resulting values for sn=1 - 12:
 sn= 1  qrot/sn=      89.4422 T*S(rot)=     3.55 kcal/mol T*S(tot)=    13.87 kcal/mol
 sn= 2  qrot/sn=      44.7211 T*S(rot)=     3.14 kcal/mol T*S(tot)=    13.46 kcal/mol
 sn= 3  qrot/sn=      29.8141 T*S(rot)=     2.90 kcal/mol T*S(tot)=    13.22 kcal/mol
 sn= 4  qrot/sn=      22.3605 T*S(rot)=     2.73 kcal/mol T*S(tot)=    13.05 kcal/mol
 sn= 5  qrot/sn=      17.8884 T*S(rot)=     2.60 kcal/mol T*S(tot)=    12.92 kcal/mol
 sn= 6  qrot/sn=      14.9070 T*S(rot)=     2.49 kcal/mol T*S(tot)=    12.81 kcal/mol
 sn= 7  qrot/sn=      12.7775 T*S(rot)=     2.40 kcal/mol T*S(tot)=    12.72 kcal/mol
 sn= 8  qrot/sn=      11.1803 T*S(rot)=     2.32 kcal/mol T*S(tot)=    12.64 kcal/mol
 sn= 9  qrot/sn=       9.9380 T*S(rot)=     2.25 kcal/mol T*S(tot)=    12.57 kcal/mol
 sn=10  qrot/sn=       8.9442 T*S(rot)=     2.19 kcal/mol T*S(tot)=    12.51 kcal/mol
 sn=11  qrot/sn=       8.1311 T*S(rot)=     2.13 kcal/mol T*S(tot)=    12.45 kcal/mol
 sn=12  qrot/sn=       7.4535 T*S(rot)=     2.08 kcal/mol T*S(tot)=    12.40 kcal/mol


-------------------
GIBBS FREE ENTHALPY
-------------------

The Gibbs free enthalpy is G = H - T*S

Total enthalpy                    ...    -76.35244652 Eh 
Total entropy correction          ...     -0.02106947 Eh    -13.22 kcal/mol
-----------------------------------------------------------------------
Final Gibbs free enthalpy         ...    -76.37351599 Eh

For completeness - the Gibbs free enthalpy minus the electronic energy
G-E(el)                           ...      0.00337437 Eh      2.12 kcal/mol


Timings for individual modules:

Sum of individual times         ...        8.630 sec (=   0.144 min)
GTO integral calculation        ...        0.193 sec (=   0.003 min)   2.2 %
SCF iterations                  ...        1.966 sec (=   0.033 min)  22.8 %
Analytical frequency calculation...        6.471 sec (=   0.108 min)  75.0 %
                             ****ORCA TERMINATED NORMALLY****
TOTAL RUN TIME: 0 days 0 hours 0 minutes 8 seconds 894 msec
