
                                 *****************
                                 * O   R   C   A *
                                 *****************

           --- An Ab Initio, DFT and Semiempirical electronic structure package ---

                  #######################################################
                  #                        -***-                        #
                  #  Department of molecular theory and spectroscopy    #
                  #              Directorship: Frank Neese              #
                  # Max Planck Institute for Chemical Energy Conversion #
                  #                  D-45470 Muelheim/Ruhr              #
                  #                       Germany                       #
                  #                                                     #
                  #                  All rights reserved                #
                  #                        -***-                        #
                  #######################################################


                         Program Version 4.0.1.2 - RELEASE -


 With contributions from (in alphabetic order):
   Daniel Aravena         : Magnetic Properties
   Michael Atanasov       : Ab Initio Ligand Field Theory
   Ute Becker             : Parallelization
   Martin Brehm           : Molecular dynamics
   Dmytro Bykov           : SCF Hessian
   Vijay G. Chilkuri      : MRCI spin determinant printing
   Dipayan Datta          : RHF DLPNO-CCSD density
   Achintya Kumar Dutta   : EOM-CC, STEOM-CC
   Dmitry Ganyushin       : Spin-Orbit,Spin-Spin,Magnetic field MRCI
   Yang Guo               : DLPNO-NEVPT2, CIM, IAO-localization
   Andreas Hansen         : Spin unrestricted coupled pair/coupled cluster methods
   Lee Huntington         : MR-EOM, pCC
   Robert Izsak           : Overlap fitted RIJCOSX, COSX-SCS-MP3, EOM
   Christian Kollmar      : KDIIS, OOCD, Brueckner-CCSD(T), CCSD density
   Simone Kossmann        : Meta GGA functionals, TD-DFT gradient, OOMP2, MP2 Hessian
   Martin Krupicka        : AUTO-CI
   Dagmar Lenk            : GEPOL surface
   Dimitrios Liakos       : Extrapolation schemes; parallel MDCI
   Dimitrios Manganas     : ROCIS; embedding schemes
   Dimitrios Pantazis     : SARC Basis sets
   Taras Petrenko         : DFT Hessian,TD-DFT gradient, ASA, ECA, R-Raman, ABS, FL, XAS/XES, NRVS
   Peter Pinski           : DLPNO-MP2
   Christoph Reimann      : Effective Core Potentials
   Marius Retegan         : Local ZFS, SOC
   Christoph Riplinger    : Optimizer, TS searches, QM/MM, DLPNO-CCSD(T), (RO)-DLPNO pert. Triples
   Tobias Risthaus        : Range-separated hybrids, TD-DFT gradient, RPA, STAB
   Michael Roemelt        : Restricted open shell CIS
   Masaaki Saitow         : Open-shell DLPNO
   Barbara Sandhoefer     : DKH picture change effects
   Kantharuban Sivalingam : CASSCF convergence, NEVPT2, FIC-MRCI
   Georgi Stoychev        : AutoAux
   Boris Wezisla          : Elementary symmetry handling
   Frank Wennmohs         : Technical directorship


 We gratefully acknowledge several colleagues who have allowed us to
 interface, adapt or use parts of their codes:
   Stefan Grimme, W. Hujo, H. Kruse,             : VdW corrections, initial TS optimization,
                  C. Bannwarth                     DFT functionals, gCP, sTDA/sTD-DF
   Ed Valeev                                     : LibInt (2-el integral package), F12 methods
   Garnet Chan, S. Sharma, J. Yang, R. Olivares  : DMRG
   Ulf Ekstrom                                   : XCFun DFT Library
   Mihaly Kallay                                 : mrcc  (arbitrary order and MRCC methods)
   Andreas Klamt, Michael Diedenhofen            : otool_cosmo (COSMO solvation model)
   Jiri Pittner, Ondrej Demel                    : Mk-CCSD
   Frank Weinhold                                : gennbo (NPA and NBO analysis)
   Christopher J. Cramer and Donald G. Truhlar   : smd solvation model


 Your calculation uses the libint2 library for the computation of 2-el integrals
 For citations please refer to: http://libint.valeyev.net

 This ORCA versions uses:
   CBLAS   interface :  Fast vector & matrix operations
   LAPACKE interface :  Fast linear algebra routines
   SCALAPACK package :  Parallel linear algebra routines




*****************************************
The coordinations will be read from file: opt.xyz
*****************************************


Your calculation utilizes the basis: def2-TZVP
   F. Weigend and R. Ahlrichs, Phys. Chem. Chem. Phys. 7, 3297 (2005).

Your calculation utilizes the auxiliary basis: def2/J
   F. Weigend, Phys. Chem. Chem. Phys. 8, 1057 (2006).

================================================================================
                                        WARNINGS
                       Please study these warnings very carefully!
================================================================================

Warning: TCutStore was < 0. Adjusted to Thresh (uncritical)

INFO   : the flag for use of LIBINT has been found!

================================================================================
                                       INPUT FILE
================================================================================
NAME = freq.inp
|  1> # avogadro generated ORCA input file 
|  2> # Basic Mode
|  3> # 
|  4> ! PBE FREQ def2-TZVP
|  5> 
|  6> * xyzfile 0 1 opt.xyz
|  7> 
|  8> 
|  9>                          ****END OF INPUT****
================================================================================

                       ****************************
                       * Single Point Calculation *
                       ****************************

---------------------------------
CARTESIAN COORDINATES (ANGSTROEM)
---------------------------------
  O      0.312968    1.584383    0.000125
  C      0.306360    0.365282    0.000028
  C     -1.003087   -0.410108   -0.000010
  H     -0.864889   -1.499037    0.000048
  H     -1.590301   -0.117293    0.882970
  H     -1.590211   -0.117378   -0.883079
  H      1.613010   -1.105824   -0.882175
  C      1.584386   -0.445510   -0.000017
  H      2.457614    0.215848   -0.000074
  H      1.613090   -1.105763    0.882185

----------------------------
CARTESIAN COORDINATES (A.U.)
----------------------------
  NO LB      ZA    FRAG     MASS         X           Y           Z
   0 O     8.0000    0    15.999    0.591424    2.994050    0.000237
   1 C     6.0000    0    12.011    0.578937    0.690284    0.000052
   2 C     6.0000    0    12.011   -1.895560   -0.774991   -0.000020
   3 H     1.0000    0     1.008   -1.634404   -2.832770    0.000090
   4 H     1.0000    0     1.008   -3.005233   -0.221651    1.668572
   5 H     1.0000    0     1.008   -3.005063   -0.221812   -1.668778
   6 H     1.0000    0     1.008    3.048147   -2.089705   -1.667069
   7 C     6.0000    0    12.011    2.994056   -0.841892   -0.000033
   8 H     1.0000    0     1.008    4.644218    0.407893   -0.000139
   9 H     1.0000    0     1.008    3.048298   -2.089589    1.667088

--------------------------------
INTERNAL COORDINATES (ANGSTROEM)
--------------------------------
 O      0   0   0     0.000000000000     0.00000000     0.00000000
 C      1   0   0     1.219118566845     0.00000000     0.00000000
 C      2   1   0     1.521802050150   120.94250128     0.00000000
 H      3   2   1     1.097663748313   113.39910644   180.00841509
 H      3   2   1     1.100097854585   108.88428530   301.97646796
 H      3   2   1     1.100098340204   108.88484644    58.04010584
 H      2   1   3     2.156332528281   132.76277303   146.13989150
 C      7   2   1     1.102286738486    41.25037927    79.46757042
 H      8   7   2     1.095409218026   109.93364763   238.10545732
 H      8   7   2     1.102288076393   106.32089053   119.15396590

---------------------------
INTERNAL COORDINATES (A.U.)
---------------------------
 O      0   0   0     0.000000000000     0.00000000     0.00000000
 C      1   0   0     2.303800216116     0.00000000     0.00000000
 C      2   1   0     2.875789104823   120.94250128     0.00000000
 H      3   2   1     2.074283871446   113.39910644   180.00841509
 H      3   2   1     2.078883665679   108.88428530   301.97646796
 H      3   2   1     2.078884583368   108.88484644    58.04010584
 H      2   1   3     4.074877932118   132.76277303   146.13989150
 C      7   2   1     2.083020056791    41.25037927    79.46757042
 H      8   7   2     2.070023426641   109.93364763   238.10545732
 H      8   7   2     2.083022585070   106.32089053   119.15396590

---------------------
BASIS SET INFORMATION
---------------------
There are 3 groups of distinct atoms

 Group   1 Type O   : 11s6p2d1f contracted to 5s3p2d1f pattern {62111/411/11/1}
 Group   2 Type C   : 11s6p2d1f contracted to 5s3p2d1f pattern {62111/411/11/1}
 Group   3 Type H   : 5s1p contracted to 3s1p pattern {311/1}

Atom   0O    basis set group =>   1
Atom   1C    basis set group =>   2
Atom   2C    basis set group =>   2
Atom   3H    basis set group =>   3
Atom   4H    basis set group =>   3
Atom   5H    basis set group =>   3
Atom   6H    basis set group =>   3
Atom   7C    basis set group =>   2
Atom   8H    basis set group =>   3
Atom   9H    basis set group =>   3
-------------------------------
AUXILIARY BASIS SET INFORMATION
-------------------------------
There are 3 groups of distinct atoms

 Group   1 Type O   : 12s5p4d2f1g contracted to 6s4p3d1f1g pattern {711111/2111/211/2/1}
 Group   2 Type C   : 12s5p4d2f1g contracted to 6s4p3d1f1g pattern {711111/2111/211/2/1}
 Group   3 Type H   : 5s2p1d contracted to 3s1p1d pattern {311/2/1}

Atom   0O    basis set group =>   1
Atom   1C    basis set group =>   2
Atom   2C    basis set group =>   2
Atom   3H    basis set group =>   3
Atom   4H    basis set group =>   3
Atom   5H    basis set group =>   3
Atom   6H    basis set group =>   3
Atom   7C    basis set group =>   2
Atom   8H    basis set group =>   3
Atom   9H    basis set group =>   3
------------------------------------------------------------------------------
                           ORCA GTO INTEGRAL CALCULATION
                           -- RI-GTO INTEGRALS CHOSEN --
------------------------------------------------------------------------------

                         BASIS SET STATISTICS AND STARTUP INFO

Gaussian basis set:
 # of primitive gaussian shells          ...  116
 # of primitive gaussian functions       ...  232
 # of contracted shells                  ...   68
 # of contracted basis functions         ...  160
 Highest angular momentum                ...    3
 Maximum contraction depth               ...    6
Auxiliary gaussian basis set:
 # of primitive gaussian shells          ...  144
 # of primitive gaussian functions       ...  376
 # of contracted shells                  ...   90
 # of contracted aux-basis functions     ...  262
 Highest angular momentum                ...    4
 Maximum contraction depth               ...    7
Ratio of auxiliary to basis functions    ...  1.64
Integral package used                  ... LIBINT
 One Electron integrals                  ... done
 Ordering auxiliary basis shells         ... done
 Integral threshhold             Thresh  ...  1.000e-10
 Primitive cut-off               TCut    ...  1.000e-11
 Pre-screening matrix                    ... done
 Shell pair data                         ... 
 Ordering of the shell pairs             ... done (   0.000 sec) 2303 of 2346 pairs
 Determination of significant pairs      ... done (   0.000 sec)
 Creation of shell pair data             ... done (   0.001 sec)
 Storage of shell pair data              ... done (   0.006 sec)
 Shell pair data done in (   0.008 sec)
 Computing two index integrals           ... done
 Cholesky decomposition of the V-matrix  ... done


Timings:
 Total evaluation time                   ...   0.245 sec (  0.004 min)
 One electron matrix time                ...   0.038 sec (  0.001 min) = 15.5%
 Schwartz matrix evaluation time         ...   0.163 sec (  0.003 min) = 66.4%
 Two index repulsion integral time       ...   0.007 sec (  0.000 min) =  2.7%
 Cholesky decomposition of V             ...   0.006 sec (  0.000 min) =  2.4%
 Three index repulsion integral time     ...   0.000 sec (  0.000 min) =  0.0%

-------------------------------------------------------------------------------
                                 ORCA SCF
-------------------------------------------------------------------------------

------------
SCF SETTINGS
------------
Hamiltonian:
 Density Functional     Method          .... DFT(GTOs)
 Exchange Functional    Exchange        .... PBE
   PBE kappa parameter   XKappa         ....  0.804000
   PBE mue parameter    XMuePBE         ....  0.219520
 Correlation Functional Correlation     .... PBE
   PBE beta parameter  CBetaPBE         ....  0.066725
 LDA part of GGA corr.  LDAOpt          .... PW91-LDA
 Gradients option       PostSCFGGA      .... off
   NL short-range parameter             ....  6.400000
 RI-approximation to the Coulomb term is turned on
   Number of auxiliary basis functions  .... 262


General Settings:
 Integral files         IntName         .... freq
 Hartree-Fock type      HFTyp           .... RHF
 Total Charge           Charge          ....    0
 Multiplicity           Mult            ....    1
 Number of Electrons    NEL             ....   32
 Basis Dimension        Dim             ....  160
 Nuclear Repulsion      ENuc            ....    118.8851403209 Eh

Convergence Acceleration:
 DIIS                   CNVDIIS         .... on
   Start iteration      DIISMaxIt       ....    12
   Startup error        DIISStart       ....  0.200000
   # of expansion vecs  DIISMaxEq       ....     5
   Bias factor          DIISBfac        ....   1.050
   Max. coefficient     DIISMaxC        ....  10.000
 Newton-Raphson         CNVNR           .... off
 SOSCF                  CNVSOSCF        .... on
   Start iteration      SOSCFMaxIt      ....   150
   Startup grad/error   SOSCFStart      ....  0.003300
 Level Shifting         CNVShift        .... on
   Level shift para.    LevelShift      ....    0.2500
   Turn off err/grad.   ShiftErr        ....    0.0010
 Zerner damping         CNVZerner       .... off
 Static damping         CNVDamp         .... on
   Fraction old density DampFac         ....    0.7000
   Max. Damping (<1)    DampMax         ....    0.9800
   Min. Damping (>=0)   DampMin         ....    0.0000
   Turn off err/grad.   DampErr         ....    0.1000
 Fernandez-Rico         CNVRico         .... off

SCF Procedure:
 Maximum # iterations   MaxIter         ....   125
 SCF integral mode      SCFMode         .... Direct
   Integral package                     .... LIBINT
 Reset frequeny         DirectResetFreq ....    20
 Integral Threshold     Thresh          ....  1.000e-10 Eh
 Primitive CutOff       TCut            ....  1.000e-11 Eh

Convergence Tolerance:
 Convergence Check Mode ConvCheckMode   .... Total+1el-Energy
 Convergence forced     ConvForced      .... 0
 Energy Change          TolE            ....  1.000e-06 Eh
 1-El. energy change                    ....  1.000e-03 Eh
 Orbital Gradient       TolG            ....  5.000e-05
 Orbital Rotation angle TolX            ....  5.000e-05
 DIIS Error             TolErr          ....  1.000e-06


Diagonalization of the overlap matrix:
Smallest eigenvalue                        ... 3.792e-04
Time for diagonalization                   ...    0.005 sec
Threshold for overlap eigenvalues          ... 1.000e-08
Number of eigenvalues below threshold      ... 0
Time for construction of square roots      ...    0.004 sec
Total time needed                          ...    0.009 sec

-------------------
DFT GRID GENERATION
-------------------

General Integration Accuracy     IntAcc      ...  4.340
Radial Grid Type                 RadialGrid  ... Gauss-Chebyshev
Angular Grid (max. acc.)         AngularGrid ... Lebedev-110
Angular grid pruning method      GridPruning ... 3 (G Style)
Weight generation scheme         WeightScheme... Becke
Basis function cutoff            BFCut       ...    1.0000e-10
Integration weight cutoff        WCut        ...    1.0000e-14
Grids for H and He will be reduced by one unit

# of grid points (after initial pruning)     ...  11448 (   0.0 sec)
# of grid points (after weights+screening)   ...  10906 (   0.0 sec)
nearest neighbour list constructed           ...    0.0 sec
Grid point re-assignment to atoms done       ...    0.0 sec
Grid point division into batches done        ...    0.0 sec
Reduced shell lists constructed in    1.8 sec

Total number of grid points                  ...    10906
Total number of batches                      ...      176
Average number of points per batch           ...       61
Average number of grid points per atom       ...     1091
Average number of shells per batch           ...    52.37 (77.01%)
Average number of basis functions per batch  ...   127.51 (79.69%)
Average number of large shells per batch     ...    43.43 (82.93%)
Average number of large basis fcns per batch ...   104.65 (82.07%)
Maximum spatial batch extension              ...  20.42, 19.30, 25.60 au
Average spatial batch extension              ...   4.39,  4.42,  4.23 au

Time for grid setup =    1.790 sec

------------------------------
INITIAL GUESS: MODEL POTENTIAL
------------------------------
Loading Hartree-Fock densities                     ... done
Calculating cut-offs                               ... done
Setting up the integral package                    ... done
Initializing the effective Hamiltonian             ... done
Starting the Coulomb interaction                   ... done (   0.1 sec)
Reading the grid                                   ... done
Mapping shells                                     ... done
Starting the XC term evaluation                    ... done (   0.3 sec)
  promolecular density results
     # of electrons  =     32.009878941
     EX              =    -25.215576004
     EC              =     -1.031389723
     EX+EC           =    -26.246965728
Transforming the Hamiltonian                       ... done (   0.0 sec)
Diagonalizing the Hamiltonian                      ... done (   0.0 sec)
Back transforming the eigenvectors                 ... done (   0.0 sec)
Now organizing SCF variables                       ... done
                      ------------------
                      INITIAL GUESS DONE (   3.1 sec)
                      ------------------
--------------
SCF ITERATIONS
--------------
ITER       Energy         Delta-E        Max-DP      RMS-DP      [F,P]     Damp
               ***  Starting incremental Fock matrix formation  ***
  0   -192.8207895810   0.000000000000 0.17460330  0.00317187  0.2678202 0.7000
  1   -192.9072256061  -0.086436025005 0.14933093  0.00249326  0.0888509 0.7000
                               ***Turning on DIIS***
  2   -192.9317376400  -0.024512033997 0.13122341  0.00275637  0.0331807 0.0000
  3   -192.9765655590  -0.044827918924 0.13820197  0.00211447  0.0570747 0.0000
  4   -192.9863999995  -0.009834440479 0.03147369  0.00054628  0.0379566 0.0000
  5   -192.9884084903  -0.002008490842 0.01194231  0.00020220  0.0047179 0.0000
                      *** Initiating the SOSCF procedure ***
                           *** Shutting down DIIS ***
                      *** Re-Reading the Fockian *** 
                      *** Removing any level shift *** 
ITER      Energy       Delta-E        Grad      Rot      Max-DP    RMS-DP
  6   -192.98848576  -0.0000772655  0.000352  0.000352  0.010485  0.000169
               *** Restarting incremental Fock matrix formation ***
  7   -192.98849042  -0.0000046619  0.000139  0.000480  0.000453  0.000013
  8   -192.98848941   0.0000010088  0.000394  0.000467  0.000334  0.000009
  9   -192.98849063  -0.0000012215  0.000104  0.000231  0.001111  0.000018
 10   -192.98849045   0.0000001822  0.000112  0.000126  0.000696  0.000012
                 **** Energy Check signals convergence ****
              ***Rediagonalizing the Fockian in SOSCF/NRSCF***

               *****************************************************
               *                     SUCCESS                       *
               *           SCF CONVERGED AFTER  11 CYCLES          *
               *****************************************************

Setting up the final grid:

General Integration Accuracy     IntAcc      ...  4.670
Radial Grid Type                 RadialGrid  ... Gauss-Chebyshev
Angular Grid (max. acc.)         AngularGrid ... Lebedev-302
Angular grid pruning method      GridPruning ... 3 (G Style)
Weight generation scheme         WeightScheme... Becke
Basis function cutoff            BFCut       ...    1.0000e-10
Integration weight cutoff        WCut        ...    1.0000e-14
Grids for H and He will be reduced by one unit

# of grid points (after initial pruning)     ...  45212 (   0.0 sec)
# of grid points (after weights+screening)   ...  42628 (   0.1 sec)
nearest neighbour list constructed           ...    0.0 sec
Grid point re-assignment to atoms done       ...    0.0 sec
Grid point division into batches done        ...    0.2 sec
Reduced shell lists constructed in    0.7 sec

Total number of grid points                  ...    42628
Total number of batches                      ...      673
Average number of points per batch           ...       63
Average number of grid points per atom       ...     4263
Average number of shells per batch           ...    47.43 (69.75%)
Average number of basis functions per batch  ...   114.65 (71.66%)
Average number of large shells per batch     ...    39.05 (82.33%)
Average number of large basis fcns per batch ...    93.34 (81.41%)
Maximum spatial batch extension              ...  21.86, 19.93, 20.54 au
Average spatial batch extension              ...   2.92,  2.79,  2.82 au

Final grid set up in    0.8 sec
Final integration                            ... done (   2.0 sec)
Change in XC energy                          ...     0.001264933
Integrated number of electrons               ...    32.000090321
Previous integrated no of electrons          ...    32.008147064

----------------
TOTAL SCF ENERGY
----------------

Total Energy       :         -192.98722579 Eh           -5251.44939 eV

Components:
Nuclear Repulsion  :          118.88514032 Eh            3235.02913 eV
Electronic Energy  :         -311.87236611 Eh           -8486.47853 eV
One Electron Energy:         -496.44522005 Eh          -13508.96122 eV
Two Electron Energy:          184.57285394 Eh            5022.48269 eV

Virial components:
Potential Energy   :         -385.09068456 Eh          -10478.85026 eV
Kinetic Energy     :          192.10345876 Eh            5227.40087 eV
Virial Ratio       :            2.00460047


DFT components:
N(Alpha)           :       16.000045160436 electrons
N(Beta)            :       16.000045160436 electrons
N(Total)           :       32.000090320872 electrons
E(X)               :      -25.785565667795 Eh       
E(C)               :       -1.037653204099 Eh       
E(XC)              :      -26.823218871893 Eh       

---------------
SCF CONVERGENCE
---------------

  Last Energy change         ...   -2.7732e-07  Tolerance :   1.0000e-06
  Last MAX-Density change    ...    6.1775e-06  Tolerance :   1.0000e-05
  Last RMS-Density change    ...    2.1542e-07  Tolerance :   1.0000e-06
  Last Orbital Gradient      ...    2.4254e-06  Tolerance :   5.0000e-05
  Last Orbital Rotation      ...    4.4603e-06  Tolerance :   5.0000e-05

             **** THE GBW FILE WAS UPDATED (freq.gbw) ****
             **** DENSITY FILE WAS UPDATED (freq.scfp.tmp) ****
             **** ENERGY FILE WAS UPDATED (freq.en.tmp) ****
----------------
ORBITAL ENERGIES
----------------

  NO   OCC          E(Eh)            E(eV) 
   0   2.0000     -18.736115      -509.8356 
   1   2.0000      -9.972043      -271.3531 
   2   2.0000      -9.891201      -269.1533 
   3   2.0000      -9.890413      -269.1318 
   4   2.0000      -0.950647       -25.8684 
   5   2.0000      -0.699303       -19.0290 
   6   2.0000      -0.645574       -17.5670 
   7   2.0000      -0.479551       -13.0492 
   8   2.0000      -0.414505       -11.2793 
   9   2.0000      -0.411435       -11.1957 
  10   2.0000      -0.404509       -11.0073 
  11   2.0000      -0.363708        -9.8970 
  12   2.0000      -0.351182        -9.5562 
  13   2.0000      -0.336670        -9.1612 
  14   2.0000      -0.310078        -8.4377 
  15   2.0000      -0.206684        -5.6242 
  16   0.0000      -0.060697        -1.6517 
  17   0.0000       0.008745         0.2380 
  18   0.0000       0.057143         1.5549 
  19   0.0000       0.075361         2.0507 
  20   0.0000       0.077538         2.1099 
  21   0.0000       0.084322         2.2945 
  22   0.0000       0.100438         2.7331 
  23   0.0000       0.104955         2.8560 
  24   0.0000       0.140402         3.8205 
  25   0.0000       0.153903         4.1879 
  26   0.0000       0.189447         5.1551 
  27   0.0000       0.205063         5.5800 
  28   0.0000       0.209093         5.6897 
  29   0.0000       0.233844         6.3632 
  30   0.0000       0.259615         7.0645 
  31   0.0000       0.279786         7.6134 
  32   0.0000       0.333687         9.0801 
  33   0.0000       0.347591         9.4584 
  34   0.0000       0.358707         9.7609 
  35   0.0000       0.371392        10.1061 
  36   0.0000       0.380332        10.3494 
  37   0.0000       0.389278        10.5928 
  38   0.0000       0.395467        10.7612 
  39   0.0000       0.415919        11.3177 
  40   0.0000       0.422146        11.4872 
  41   0.0000       0.436603        11.8806 
  42   0.0000       0.488731        13.2990 
  43   0.0000       0.506636        13.7863 
  44   0.0000       0.529592        14.4109 
  45   0.0000       0.544653        14.8207 
  46   0.0000       0.567962        15.4550 
  47   0.0000       0.661419        17.9981 
  48   0.0000       0.678185        18.4543 
  49   0.0000       0.747324        20.3357 
  50   0.0000       0.780180        21.2298 
  51   0.0000       0.833408        22.6782 
  52   0.0000       0.852056        23.1856 
  53   0.0000       0.887273        24.1439 
  54   0.0000       0.897501        24.4223 
  55   0.0000       0.926234        25.2041 
  56   0.0000       0.954227        25.9659 
  57   0.0000       0.967635        26.3307 
  58   0.0000       1.041776        28.3482 
  59   0.0000       1.058388        28.8002 
  60   0.0000       1.084705        29.5163 
  61   0.0000       1.171840        31.8874 
  62   0.0000       1.301707        35.4213 
  63   0.0000       1.340694        36.4822 
  64   0.0000       1.374761        37.4091 
  65   0.0000       1.423697        38.7408 
  66   0.0000       1.437130        39.1063 
  67   0.0000       1.439444        39.1693 
  68   0.0000       1.450919        39.4815 
  69   0.0000       1.463830        39.8328 
  70   0.0000       1.492005        40.5995 
  71   0.0000       1.510922        41.1143 
  72   0.0000       1.513274        41.1783 
  73   0.0000       1.546788        42.0902 
  74   0.0000       1.570029        42.7226 
  75   0.0000       1.624331        44.2003 
  76   0.0000       1.763961        47.9998 
  77   0.0000       1.783450        48.5302 
  78   0.0000       1.814999        49.3886 
  79   0.0000       1.854435        50.4617 
  80   0.0000       1.855781        50.4984 
  81   0.0000       1.911034        52.0019 
  82   0.0000       1.962544        53.4035 
  83   0.0000       1.986346        54.0512 
  84   0.0000       2.021907        55.0189 
  85   0.0000       2.060380        56.0658 
  86   0.0000       2.097429        57.0740 
  87   0.0000       2.199763        59.8586 
  88   0.0000       2.219665        60.4001 
  89   0.0000       2.221976        60.4630 
  90   0.0000       2.242960        61.0340 
  91   0.0000       2.264773        61.6276 
  92   0.0000       2.279268        62.0220 
  93   0.0000       2.303489        62.6811 
  94   0.0000       2.332252        63.4638 
  95   0.0000       2.442369        66.4602 
  96   0.0000       2.446941        66.5846 
  97   0.0000       2.463974        67.0481 
  98   0.0000       2.484540        67.6078 
  99   0.0000       2.532017        68.8997 
 100   0.0000       2.631769        71.6141 
 101   0.0000       2.642784        71.9138 
 102   0.0000       2.677767        72.8657 
 103   0.0000       2.722345        74.0788 
 104   0.0000       2.800524        76.2061 
 105   0.0000       2.823544        76.8325 
 106   0.0000       2.835081        77.1465 
 107   0.0000       2.839288        77.2610 
 108   0.0000       2.911265        79.2195 
 109   0.0000       2.981117        81.1203 
 110   0.0000       3.013233        81.9943 
 111   0.0000       3.015923        82.0674 
 112   0.0000       3.047750        82.9335 
 113   0.0000       3.051100        83.0247 
 114   0.0000       3.082009        83.8657 
 115   0.0000       3.095399        84.2301 
 116   0.0000       3.114712        84.7556 
 117   0.0000       3.170491        86.2735 
 118   0.0000       3.176636        86.4407 
 119   0.0000       3.221441        87.6599 
 120   0.0000       3.250865        88.4605 
 121   0.0000       3.307045        89.9893 
 122   0.0000       3.323938        90.4489 
 123   0.0000       3.413328        92.8814 
 124   0.0000       3.446966        93.7967 
 125   0.0000       3.508450        95.4698 
 126   0.0000       3.589556        97.6768 
 127   0.0000       3.616433        98.4081 
 128   0.0000       3.738280       101.7238 
 129   0.0000       3.750733       102.0626 
 130   0.0000       3.809102       103.6509 
 131   0.0000       3.816431       103.8504 
 132   0.0000       3.875731       105.4640 
 133   0.0000       3.890048       105.8536 
 134   0.0000       4.078984       110.9948 
 135   0.0000       4.133571       112.4802 
 136   0.0000       4.221110       114.8622 
 137   0.0000       4.265361       116.0664 
 138   0.0000       4.270743       116.2128 
 139   0.0000       4.308257       117.2336 
 140   0.0000       4.387793       119.3979 
 141   0.0000       4.496148       122.3464 
 142   0.0000       4.645893       126.4212 
 143   0.0000       4.710511       128.1795 
 144   0.0000       5.076581       138.1408 
 145   0.0000       5.084442       138.3547 
 146   0.0000       5.461263       148.6085 
 147   0.0000       5.548304       150.9770 
 148   0.0000       5.976722       162.6349 
 149   0.0000       6.182983       168.2475 
 150   0.0000       6.247937       170.0150 
 151   0.0000       6.360074       173.0664 
 152   0.0000       6.377242       173.5336 
 153   0.0000       6.678445       181.7297 
 154   0.0000       6.848034       186.3445 
 155   0.0000       6.927187       188.4983 
 156   0.0000      21.986371       598.2796 
 157   0.0000      22.026396       599.3687 
 158   0.0000      22.684681       617.2815 
 159   0.0000      43.431250      1181.8244 

                    ********************************
                    * MULLIKEN POPULATION ANALYSIS *
                    ********************************

-----------------------
MULLIKEN ATOMIC CHARGES
-----------------------
   0 O :   -0.246808
   1 C :    0.167838
   2 C :   -0.367831
   3 H :    0.125896
   4 H :    0.144434
   5 H :    0.144432
   6 H :    0.135849
   7 C :   -0.370384
   8 H :    0.130724
   9 H :    0.135850
Sum of atomic charges:   -0.0000000

--------------------------------
MULLIKEN REDUCED ORBITAL CHARGES
--------------------------------
  0 O s       :     3.795675  s :     3.795675
      pz      :     1.299472  p :     4.419716
      px      :     1.783226
      py      :     1.337018
      dz2     :     0.002460  d :     0.029732
      dxz     :     0.000066
      dyz     :     0.010850
      dx2y2   :     0.007677
      dxy     :     0.008680
      f0      :     0.000150  f :     0.001684
      f+1     :     0.000020
      f-1     :     0.000111
      f+2     :     0.000459
      f-2     :     0.000006
      f+3     :     0.000552
      f-3     :     0.000386
  1 C s       :     3.179553  s :     3.179553
      pz      :     0.722167  p :     2.434437
      px      :     0.939235
      py      :     0.773034
      dz2     :     0.007380  d :     0.201473
      dxz     :     0.019530
      dyz     :     0.041595
      dx2y2   :     0.048818
      dxy     :     0.084150
      f0      :     0.001895  f :     0.016699
      f+1     :     0.000581
      f-1     :     0.001189
      f+2     :     0.002444
      f-2     :     0.000940
      f+3     :     0.007049
      f-3     :     0.002601
  2 C s       :     3.247038  s :     3.247038
      pz      :     1.087294  p :     3.079856
      px      :     0.989584
      py      :     1.002978
      dz2     :     0.004560  d :     0.037970
      dxz     :     0.009986
      dyz     :     0.003009
      dx2y2   :     0.014973
      dxy     :     0.005443
      f0      :     0.000213  f :     0.002967
      f+1     :     0.000720
      f-1     :     0.000202
      f+2     :     0.000017
      f-2     :     0.000242
      f+3     :     0.000838
      f-3     :     0.000735
  3 H s       :     0.853096  s :     0.853096
      pz      :     0.004571  p :     0.021008
      px      :     0.004554
      py      :     0.011883
  4 H s       :     0.834489  s :     0.834489
      pz      :     0.008987  p :     0.021077
      px      :     0.007241
      py      :     0.004849
  5 H s       :     0.834492  s :     0.834492
      pz      :     0.008988  p :     0.021077
      px      :     0.007241
      py      :     0.004848
  6 H s       :     0.843111  s :     0.843111
      pz      :     0.008904  p :     0.021040
      px      :     0.004601
      py      :     0.007536
  7 C s       :     3.212521  s :     3.212521
      pz      :     1.047559  p :     3.111200
      px      :     1.018705
      py      :     1.044937
      dz2     :     0.003222  d :     0.043746
      dxz     :     0.004881
      dyz     :     0.010527
      dx2y2   :     0.015044
      dxy     :     0.010073
      f0      :     0.000213  f :     0.002916
      f+1     :    -0.000003
      f-1     :     0.000917
      f+2     :    -0.000025
      f-2     :     0.000289
      f+3     :     0.000786
      f-3     :     0.000739
  8 H s       :     0.847399  s :     0.847399
      pz      :     0.004583  p :     0.021876
      px      :     0.010053
      py      :     0.007240
  9 H s       :     0.843110  s :     0.843110
      pz      :     0.008904  p :     0.021040
      px      :     0.004601
      py      :     0.007536


                     *******************************
                     * LOEWDIN POPULATION ANALYSIS *
                     *******************************

----------------------
LOEWDIN ATOMIC CHARGES
----------------------
   0 O :    0.137068
   1 C :   -0.393293
   2 C :   -0.285044
   3 H :    0.126128
   4 H :    0.143276
   5 H :    0.143277
   6 H :    0.139872
   7 C :   -0.283337
   8 H :    0.132176
   9 H :    0.139876

-------------------------------
LOEWDIN REDUCED ORBITAL CHARGES
-------------------------------
  0 O s       :     3.408892  s :     3.408892
      pz      :     1.237333  p :     4.379851
      px      :     1.647185
      py      :     1.495333
      dz2     :     0.007703  d :     0.068284
      dxz     :     0.000047
      dyz     :     0.012426
      dx2y2   :     0.023941
      dxy     :     0.024167
      f0      :     0.000351  f :     0.005906
      f+1     :     0.000145
      f-1     :     0.000868
      f+2     :     0.000710
      f-2     :     0.000012
      f+3     :     0.002070
      f-3     :     0.001749
  1 C s       :     2.787185  s :     2.787185
      pz      :     0.699099  p :     2.728561
      px      :     1.029602
      py      :     0.999861
      dz2     :     0.047634  d :     0.771712
      dxz     :     0.064003
      dyz     :     0.121934
      dx2y2   :     0.210916
      dxy     :     0.327225
      f0      :     0.006647  f :     0.105834
      f+1     :     0.003621
      f-1     :     0.009668
      f+2     :     0.016452
      f-2     :     0.005568
      f+3     :     0.047480
      f-3     :     0.016399
  2 C s       :     2.847609  s :     2.847609
      pz      :     1.083483  p :     3.197998
      px      :     1.052195
      py      :     1.062320
      dz2     :     0.035797  d :     0.216904
      dxz     :     0.054545
      dyz     :     0.012773
      dx2y2   :     0.071944
      dxy     :     0.041844
      f0      :     0.001309  f :     0.022533
      f+1     :     0.003803
      f-1     :     0.002990
      f+2     :     0.001194
      f-2     :     0.003793
      f+3     :     0.004799
      f-3     :     0.004644
  3 H s       :     0.812374  s :     0.812374
      pz      :     0.013517  p :     0.061499
      px      :     0.012863
      py      :     0.035119
  4 H s       :     0.795014  s :     0.795014
      pz      :     0.027560  p :     0.061709
      px      :     0.019581
      py      :     0.014568
  5 H s       :     0.795013  s :     0.795013
      pz      :     0.027563  p :     0.061709
      px      :     0.019579
      py      :     0.014568
  6 H s       :     0.798885  s :     0.798885
      pz      :     0.027260  p :     0.061243
      px      :     0.012801
      py      :     0.021182
  7 C s       :     2.847176  s :     2.847176
      pz      :     1.064908  p :     3.192317
      px      :     1.055854
      py      :     1.071555
      dz2     :     0.033371  d :     0.221102
      dxz     :     0.016285
      dyz     :     0.056378
      dx2y2   :     0.052787
      dxy     :     0.062281
      f0      :     0.001305  f :     0.022742
      f+1     :     0.002962
      f-1     :     0.003891
      f+2     :     0.003020
      f-2     :     0.001690
      f+3     :     0.004933
      f-3     :     0.004942
  8 H s       :     0.806243  s :     0.806243
      pz      :     0.012700  p :     0.061581
      px      :     0.027267
      py      :     0.021614
  9 H s       :     0.798881  s :     0.798881
      pz      :     0.027262  p :     0.061243
      px      :     0.012801
      py      :     0.021180


                      *****************************
                      * MAYER POPULATION ANALYSIS *
                      *****************************

  NA   - Mulliken gross atomic population
  ZA   - Total nuclear charge
  QA   - Mulliken gross atomic charge
  VA   - Mayer's total valence
  BVA  - Mayer's bonded valence
  FA   - Mayer's free valence

  ATOM       NA         ZA         QA         VA         BVA        FA
  0 O      8.2468     8.0000    -0.2468     2.2108     2.2108    -0.0000
  1 C      5.8322     6.0000     0.1678     4.1268     4.1268    -0.0000
  2 C      6.3678     6.0000    -0.3678     3.7333     3.7333     0.0000
  3 H      0.8741     1.0000     0.1259     0.9672     0.9672     0.0000
  4 H      0.8556     1.0000     0.1444     0.9837     0.9837     0.0000
  5 H      0.8556     1.0000     0.1444     0.9837     0.9837     0.0000
  6 H      0.8642     1.0000     0.1358     0.9694     0.9694     0.0000
  7 C      6.3704     6.0000    -0.3704     3.7437     3.7437    -0.0000
  8 H      0.8693     1.0000     0.1307     1.0037     1.0037    -0.0000
  9 H      0.8642     1.0000     0.1358     0.9694     0.9694     0.0000

  Mayer bond orders larger than 0.1
B(  0-O ,  1-C ) :   2.1683 B(  1-C ,  2-C ) :   0.9383 B(  1-C ,  7-C ) :   0.9839 
B(  2-C ,  3-H ) :   0.9523 B(  2-C ,  4-H ) :   0.9465 B(  2-C ,  5-H ) :   0.9465 
B(  6-H ,  7-C ) :   0.9348 B(  7-C ,  8-H ) :   0.9627 B(  7-C ,  9-H ) :   0.9348 


-------
TIMINGS
-------

Total SCF time: 0 days 0 hours 0 min 22 sec 

Total time                  ....      22.774 sec
Sum of individual times     ....      22.141 sec  ( 97.2%)

Fock matrix formation       ....      17.216 sec  ( 75.6%)
  Split-RI-J                ....       4.910 sec  ( 28.5% of F)
  XC integration            ....      11.106 sec  ( 64.5% of F)
    Basis function eval.    ....       1.618 sec  ( 14.6% of XC)
    Density eval.           ....       7.206 sec  ( 64.9% of XC)
    XC-Functional eval.     ....       0.591 sec  (  5.3% of XC)
    XC-Potential eval.      ....       1.424 sec  ( 12.8% of XC)
Diagonalization             ....       0.439 sec  (  1.9%)
Density matrix formation    ....       0.003 sec  (  0.0%)
Population analysis         ....       0.014 sec  (  0.1%)
Initial guess               ....       1.761 sec  (  7.7%)
Orbital Transformation      ....       0.000 sec  (  0.0%)
Orbital Orthonormalization  ....       0.000 sec  (  0.0%)
DIIS solution               ....       0.050 sec  (  0.2%)
SOSCF solution              ....       0.047 sec  (  0.2%)
Grid generation             ....       2.611 sec  ( 11.5%)

-------------------------   --------------------
FINAL SINGLE POINT ENERGY      -192.987225792467
-------------------------   --------------------


                            ***************************************
                            *     ORCA property calculations      *
                            ***************************************

                                    ---------------------
                                    Active property flags
                                    ---------------------
   (+) Dipole Moment


------------------------------------------------------------------------------
                       ORCA ELECTRIC PROPERTIES CALCULATION
------------------------------------------------------------------------------

Dipole Moment Calculation                       ... on
Quadrupole Moment Calculation                   ... off
Polarizability Calculation                      ... off
GBWName                                         ... freq.gbw
Electron density file                           ... freq.scfp.tmp
The origin for moment calculation is the CENTER OF MASS  = ( 0.563543,  0.510819  0.000061)

-------------
DIPOLE MOMENT
-------------
                                X             Y             Z
Electronic contribution:      0.11167       3.89355       0.00022
Nuclear contribution   :     -0.14142      -5.00106      -0.00030
                        -----------------------------------------
Total Dipole Moment    :     -0.02975      -1.10751      -0.00008
                        -----------------------------------------
Magnitude (a.u.)       :      1.10791
Magnitude (Debye)      :      2.81608


-------------------------------------------------------------------------------
                               ORCA SCF HESSIAN
-------------------------------------------------------------------------------

Hessian of the Kohn-Sham DFT energy:
Kohn-Sham wavefunction type                      ... RKS
Hartree-Fock exchange scaling                    ...    0.000
Number of operators                              ...    1
Number of atoms                                  ...   10
Basis set dimensions                             ...  160
Integral neglect threshold                       ... 1.0e-10
Integral primitive cutoff                        ... 1.0e-11

Setting up DFT Hessian calculations              ... 
Electron density on the grid                     ... found on disk
Electron density on the final grid               ... found on disk
Building xc-kernel on the grid                   ... done   (      0.0 sec)
Building xc-kernel on the final grid             ... done   (      0.1 sec)
                                                     done   (      0.2 sec)

Nuclear repulsion Hessian                        ... done   (      0.0 sec)

----------------------------------------------
Forming right-hand sides of CP-SCF equations     ...
----------------------------------------------
One electron integral derivatives                ... done   (      0.2 sec)
Transforming the overlap derivative matrices     ... done   (      0.1 sec)
Making the Q(x) pseudodensities                  ... done   (      0.0 sec)
Adding the E*S(x)*S(y) terms to the Hessian      ... done   (      0.0 sec)
Calculating energy weighted overlap derivatives  ... done   (      0.4 sec)
Two electron integral derivatives (RI)           ... done   (      2.0 sec)
Exchange-correlation integral derivatives        ... done   (     37.5 sec)
tr(F(y)Q(x)) contribution to the Hessian         ... done   (      0.0 sec)
Response fock operator R(S(x)) (RI)              ... done   (      6.2 sec)
XC Response fock operator R(S(x))                ... done   (     15.3 sec)
tr(F(y)S(x)) contribution to the Hessian         ... done   (      0.0 sec)
Transforming and finalizing RHSs                 ... done   (      0.0 sec)

----------------------------------------------
Solving the CP-SCF equations (RI)                ...
----------------------------------------------
     CP-SCF ITERATION   0: 
     CP-SCF ITERATION   1:      0.007776895338
     CP-SCF ITERATION   2:      0.000722439091
     CP-SCF ITERATION   3:      0.000011925510
     CP-SCF ITERATION   4:      0.000000848859

                                                 ... done   (     71.3 sec)
Forming perturbed density Hessian contributions  ... done   (      0.0 sec)
Making the perturbed densities                   ... done   (      0.0 sec)
2nd integral derivative contribs (RI)            ... done   (      6.6 sec)
Exchange-correlation Hessian                     ... done   (     25.2 sec)
Dipol derivatives                                ... done   (      0.8 sec)

Total SCF Hessian time: 0 days 0 hours 2 min 46 sec 

Writing the Hessian file to the disk             ... done


-----------------------
VIBRATIONAL FREQUENCIES
-----------------------

   0:         0.00 cm**-1
   1:         0.00 cm**-1
   2:         0.00 cm**-1
   3:         0.00 cm**-1
   4:         0.00 cm**-1
   5:         0.00 cm**-1
   6:      -106.22 cm**-1 ***imaginary mode***
   7:       160.02 cm**-1
   8:       370.42 cm**-1
   9:       480.03 cm**-1
  10:       509.25 cm**-1
  11:       762.58 cm**-1
  12:       837.45 cm**-1
  13:       883.14 cm**-1
  14:      1029.33 cm**-1
  15:      1062.52 cm**-1
  16:      1189.07 cm**-1
  17:      1318.49 cm**-1
  18:      1321.62 cm**-1
  19:      1404.48 cm**-1
  20:      1414.67 cm**-1
  21:      1420.87 cm**-1
  22:      1422.49 cm**-1
  23:      1728.39 cm**-1
  24:      2961.68 cm**-1
  25:      2976.08 cm**-1
  26:      3020.48 cm**-1
  27:      3046.67 cm**-1
  28:      3066.60 cm**-1
  29:      3086.75 cm**-1


------------
NORMAL MODES
------------

These modes are the cartesian displacements weighted by the diagonal matrix
M(i,i)=1/sqrt(m[i]) where m[i] is the mass of the displaced atom
Thus, these vectors are normalized but *not* orthogonal

                  0          1          2          3          4          5    
      0       0.000000   0.000000   0.000000   0.000000   0.000000   0.000000
      1       0.000000   0.000000   0.000000   0.000000   0.000000   0.000000
      2       0.000000   0.000000   0.000000   0.000000   0.000000   0.000000
      3       0.000000   0.000000   0.000000   0.000000   0.000000   0.000000
      4       0.000000   0.000000   0.000000   0.000000   0.000000   0.000000
      5       0.000000   0.000000   0.000000   0.000000   0.000000   0.000000
      6       0.000000   0.000000   0.000000   0.000000   0.000000   0.000000
      7       0.000000   0.000000   0.000000   0.000000   0.000000   0.000000
      8       0.000000   0.000000   0.000000   0.000000   0.000000   0.000000
      9       0.000000   0.000000   0.000000   0.000000   0.000000   0.000000
     10       0.000000   0.000000   0.000000   0.000000   0.000000   0.000000
     11       0.000000   0.000000   0.000000   0.000000   0.000000   0.000000
     12       0.000000   0.000000   0.000000   0.000000   0.000000   0.000000
     13       0.000000   0.000000   0.000000   0.000000   0.000000   0.000000
     14       0.000000   0.000000   0.000000   0.000000   0.000000   0.000000
     15       0.000000   0.000000   0.000000   0.000000   0.000000   0.000000
     16       0.000000   0.000000   0.000000   0.000000   0.000000   0.000000
     17       0.000000   0.000000   0.000000   0.000000   0.000000   0.000000
     18       0.000000   0.000000   0.000000   0.000000   0.000000   0.000000
     19       0.000000   0.000000   0.000000   0.000000   0.000000   0.000000
     20       0.000000   0.000000   0.000000   0.000000   0.000000   0.000000
     21       0.000000   0.000000   0.000000   0.000000   0.000000   0.000000
     22       0.000000   0.000000   0.000000   0.000000   0.000000   0.000000
     23       0.000000   0.000000   0.000000   0.000000   0.000000   0.000000
     24       0.000000   0.000000   0.000000   0.000000   0.000000   0.000000
     25       0.000000   0.000000   0.000000   0.000000   0.000000   0.000000
     26       0.000000   0.000000   0.000000   0.000000   0.000000   0.000000
     27       0.000000   0.000000   0.000000   0.000000   0.000000   0.000000
     28       0.000000   0.000000   0.000000   0.000000   0.000000   0.000000
     29       0.000000   0.000000   0.000000   0.000000   0.000000   0.000000
                  6          7          8          9         10         11    
      0      -0.000003   0.000001  -0.006401  -0.000052   0.306066  -0.011521
      1       0.000002  -0.000008  -0.131240   0.000009  -0.000289   0.156378
      2      -0.048083   0.042480  -0.000007  -0.109109  -0.000035   0.000015
      3       0.000003  -0.000002  -0.003025   0.000022  -0.132261   0.005178
      4      -0.000000  -0.000004  -0.130072  -0.000019   0.001292   0.134315
      5      -0.014322  -0.017811  -0.000015   0.273889   0.000081   0.000000
      6      -0.000000  -0.000005  -0.150370   0.000015  -0.136005  -0.263417
      7      -0.000001   0.000005   0.106839   0.000026  -0.156530  -0.093398
      8       0.002831  -0.038529   0.000010  -0.024365  -0.000019  -0.000025
      9       0.000012  -0.000009  -0.482459  -0.000096   0.206698  -0.029400
     10      -0.000025  -0.000001   0.063816  -0.000001  -0.113686  -0.070543
     11      -0.494590  -0.166293   0.000045  -0.273862  -0.000104   0.000048
     12       0.280529   0.045052  -0.061936  -0.304586  -0.223842  -0.337021
     13      -0.405763  -0.101421   0.300442  -0.231000  -0.367019  -0.285950
     14       0.329067   0.025502  -0.005225  -0.153420   0.011710   0.017378
     15      -0.280567  -0.045064  -0.061994   0.304696  -0.223624  -0.337151
     16       0.405814   0.101450   0.300355   0.231202  -0.366834  -0.286019
     17       0.329007   0.025489   0.005245  -0.153404  -0.011819  -0.017346
     18       0.072789  -0.201487   0.383471  -0.385451   0.100722   0.200677
     19       0.069132  -0.447910   0.112806   0.167542   0.180645  -0.149849
     20      -0.001379   0.329104  -0.007767  -0.149248  -0.008374   0.000937
     21       0.000003   0.000004   0.154262   0.000025  -0.109094   0.264925
     22      -0.000002   0.000003   0.090804  -0.000027   0.159504  -0.143410
     23       0.048235  -0.004373   0.000005  -0.003855   0.000012   0.000008
     24       0.000011  -0.000024  -0.069211   0.000010  -0.322214   0.405278
     25      -0.000002  -0.000001   0.387689  -0.000031   0.440071  -0.318473
     26       0.164606  -0.493653   0.000062  -0.316332  -0.000045  -0.000060
     27      -0.072794   0.201547   0.383378   0.385506   0.100882   0.200817
     28      -0.069142   0.447949   0.112782  -0.167607   0.180557  -0.149934
     29      -0.001368   0.329059   0.007741  -0.149271   0.008302  -0.000990
                 12         13         14         15         16         17    
      0      -0.000000  -0.023845   0.006609   0.000004   0.059143   0.004176
      1      -0.000012   0.002664   0.108527   0.000004  -0.006377  -0.007027
      2       0.008632  -0.000001   0.000008   0.039875  -0.000001  -0.000001
      3      -0.000000  -0.108641  -0.013572  -0.000006  -0.370717  -0.037145
      4      -0.000008  -0.000637   0.043776   0.000020  -0.000843  -0.002680
      5      -0.006785  -0.000005   0.000011  -0.231905   0.000006   0.000002
      6       0.000020   0.053667   0.055643   0.000002   0.099960   0.134176
      7       0.000016   0.130747  -0.134772  -0.000023  -0.036628   0.046571
      8      -0.099201   0.000014  -0.000016   0.129376  -0.000007   0.000008
      9       0.000064   0.570211  -0.527093  -0.000089   0.038941  -0.428866
     10       0.000039   0.197049  -0.199911  -0.000054  -0.019307  -0.031578
     11       0.254199  -0.000029   0.000044  -0.304657   0.000041  -0.000052
     12       0.415377  -0.045078   0.130617  -0.383327   0.193287  -0.494876
     13       0.207862  -0.180604   0.303481  -0.121133   0.344631  -0.189966
     14       0.120457   0.034434  -0.085848  -0.104741  -0.062625  -0.317965
     15      -0.415400  -0.044959   0.130450   0.383403   0.193200  -0.494903
     16      -0.207898  -0.180544   0.303415   0.121254   0.344615  -0.189973
     17       0.120435  -0.034444   0.085866  -0.104686   0.062634   0.317922
     18      -0.373852   0.404251   0.312303  -0.312759   0.016208  -0.104691
     19       0.226068  -0.048002  -0.002477   0.281387  -0.169292   0.020315
     20      -0.104943  -0.048159  -0.062931  -0.107144   0.143656  -0.023746
     21      -0.000020   0.004435  -0.052451  -0.000002   0.113658   0.035760
     22       0.000003  -0.135968  -0.111138  -0.000010   0.054236  -0.008454
     23       0.089877  -0.000005  -0.000014   0.136306   0.000001  -0.000001
     24      -0.000074  -0.307913  -0.339706  -0.000053   0.475365  -0.020560
     25       0.000048   0.287588   0.283902   0.000022  -0.429862   0.060154
     26      -0.230241   0.000029   0.000050  -0.307018  -0.000037  -0.000011
     27       0.373891   0.404170   0.312211   0.312833   0.016206  -0.104699
     28      -0.226056  -0.047962  -0.002394  -0.281381  -0.169333   0.020312
     29      -0.104951   0.048136   0.062928  -0.107128  -0.143657   0.023752
                 18         19         20         21         22         23    
      0      -0.007040   0.001246   0.000003   0.008210  -0.000017  -0.002179
      1       0.000775  -0.029389   0.000006   0.005043  -0.000010  -0.475671
      2       0.000000  -0.000002  -0.001375  -0.000012  -0.005674  -0.000035
      3       0.052369   0.006158  -0.000019  -0.048782   0.000103  -0.000456
      4      -0.005876   0.014858  -0.000003   0.000136  -0.000003   0.727641
      5      -0.000003  -0.000001  -0.005539   0.000083   0.038352   0.000050
      6       0.013057  -0.001286   0.000002   0.023772  -0.000056   0.004131
      7       0.015972  -0.017210   0.000015   0.058818  -0.000123  -0.042586
      8       0.000004   0.000000   0.036879   0.000069   0.038158  -0.000000
      9      -0.117764   0.148695  -0.000107  -0.514612   0.001122  -0.237501
     10      -0.005824   0.010818  -0.000027  -0.030566   0.000038  -0.060640
     11      -0.000028   0.000042  -0.408319  -0.001192  -0.595421  -0.000029
     12      -0.097119  -0.107296   0.036807   0.266285   0.104590   0.079869
     13      -0.098602   0.123222   0.250341  -0.386003   0.401245   0.022386
     14      -0.032349  -0.112397  -0.034198   0.299174  -0.039958   0.036523
     15      -0.097109  -0.107284  -0.036631   0.265873  -0.105680   0.079833
     16      -0.098614   0.123284  -0.250534  -0.387613  -0.399612   0.022314
     17       0.032342   0.112375  -0.034352  -0.299254  -0.038689  -0.036511
     18       0.465550   0.192378  -0.377830   0.049593   0.261566   0.080236
     19      -0.274734   0.446089  -0.126734   0.157939   0.067421  -0.162362
     20       0.268552  -0.328163   0.049510  -0.122026  -0.027981   0.113772
     21      -0.127047  -0.053504   0.000012  -0.003039  -0.000003   0.005660
     22       0.083335  -0.022595  -0.000005  -0.014218   0.000028  -0.041126
     23      -0.000001  -0.000008  -0.049288   0.000066   0.024672  -0.000003
     24       0.226877   0.240638   0.000011   0.088461  -0.000160  -0.159279
     25      -0.373086  -0.385857   0.000051  -0.124460   0.000182   0.217657
     26       0.000043   0.000147   0.613590  -0.000962  -0.385178   0.000007
     27       0.465565   0.192578   0.377765   0.048318  -0.261703   0.080195
     28      -0.274732   0.446166   0.126713   0.157596  -0.067946  -0.162341
     29      -0.268565   0.328136   0.049457   0.121865  -0.028363  -0.113757
                 24         25         26         27         28         29    
      0      -0.000193   0.000049  -0.000000   0.000000  -0.000402   0.000263
      1      -0.000774  -0.000489   0.000000  -0.000000   0.000404   0.001051
      2       0.000000   0.000000   0.000111  -0.000276   0.000000   0.000000
      3       0.001388  -0.000975   0.000000   0.000000   0.002107  -0.000537
      4       0.000942  -0.000220  -0.000000   0.000000  -0.001256  -0.003053
      5      -0.000000  -0.000000   0.001255   0.001372  -0.000000  -0.000000
      6      -0.003732   0.045873   0.000000  -0.000003   0.040199   0.002918
      7      -0.002540   0.017095  -0.000000  -0.000002  -0.083886  -0.005323
      8      -0.000000   0.000004  -0.001356   0.090890  -0.000001   0.000000
      9      -0.008937   0.079479  -0.000001  -0.000011  -0.111608  -0.005391
     10       0.059088  -0.523081   0.000005   0.000078   0.835274   0.057210
     11      -0.000003   0.000029   0.000614   0.018984  -0.000044  -0.000003
     12       0.024978  -0.307039  -0.004006   0.383426  -0.191128  -0.012762
     13      -0.014438   0.163728   0.001502  -0.194602   0.084217   0.005737
     14      -0.040798   0.483282   0.006913  -0.557422   0.307730   0.019003
     15       0.024975  -0.307010   0.004004  -0.383381  -0.191040  -0.012756
     16      -0.014435   0.163692  -0.001501   0.194550   0.084157   0.005733
     17       0.040803  -0.483358   0.006912  -0.557498  -0.307675  -0.019000
     18       0.011521   0.000614   0.017867   0.001226  -0.000481  -0.015553
     19      -0.377157  -0.034316  -0.432621  -0.005040  -0.004817   0.146977
     20      -0.526508  -0.047861  -0.555179  -0.006433  -0.006863   0.217974
     21      -0.028110  -0.002714  -0.000001   0.000000   0.004238  -0.059097
     22       0.043127   0.004104   0.000003  -0.000000   0.004537  -0.070191
     23      -0.000007  -0.000000   0.090181   0.001166  -0.000001   0.000001
     24       0.301830   0.029911   0.000059  -0.000000  -0.053498   0.733681
     25       0.241547   0.022092   0.000045  -0.000000  -0.039962   0.556911
     26      -0.000022  -0.000002   0.020758  -0.000074   0.000003  -0.000048
     27       0.011572   0.000618  -0.017918  -0.001227  -0.000480  -0.015572
     28      -0.377183  -0.034317   0.432538   0.005041  -0.004818   0.146922
     29       0.526615   0.047870  -0.555146  -0.006435   0.006866  -0.217932


-----------
IR SPECTRUM
-----------

 Mode    freq (cm**-1)   T**2         TX         TY         TZ
-------------------------------------------------------------------
   7:       160.02    0.083513  (  0.000072   0.000774   0.288986)
   8:       370.42    1.887611  (  0.164968   1.363963   0.000029)
   9:       480.03    0.194853  (  0.000715  -0.001603   0.441418)
  10:       509.25   12.117819  ( -3.480081   0.082795   0.000161)
  11:       762.58    2.701691  (  0.429169   1.586665   0.000145)
  12:       837.45    0.162626  ( -0.000114   0.000098   0.403269)
  13:       883.14   11.680544  ( -3.364127   0.602656  -0.000211)
  14:      1029.33    1.580225  ( -1.227462  -0.271225   0.000122)
  15:      1062.52    4.347648  ( -0.000404   0.000851  -2.085101)
  16:      1189.07   89.710399  ( -9.468688  -0.233106  -0.000097)
  17:      1318.49   47.624986  ( -6.863545  -0.718845  -0.000337)
  18:      1321.62   37.722497  (  4.846379  -3.772944   0.000051)
  19:      1404.48   21.581761  (  0.959426   4.545466   0.000717)
  20:      1414.67    1.396977  ( -0.000469  -0.001016   1.181937)
  21:      1420.87    2.405686  ( -0.733871  -1.366399  -0.008524)
  22:      1422.49   16.256446  (  0.001797   0.002719  -4.031927)
  23:      1728.39  167.648043  (  0.135575  12.947187   0.000848)
  24:      2961.68    1.977151  ( -0.547311   1.295222   0.000040)
  25:      2976.08    2.881853  (  0.747318   1.524260  -0.000002)
  26:      3020.48    5.979595  ( -0.000298  -0.000045   2.445321)
  27:      3046.67    3.088094  ( -0.000376  -0.000502   1.757297)
  28:      3066.60   12.974262  (  0.324441  -3.587339  -0.000004)
  29:      3086.75   10.023795  ( -2.647271  -1.736592  -0.000065)

The first frequency considered to be a vibration is 7
The total number of vibrations considered is 23


--------------------------
THERMOCHEMISTRY AT 298.15K
--------------------------

Temperature         ... 298.15 K
Pressure            ... 1.00 atm
Total Mass          ... 58.08 AMU

Throughout the following assumptions are being made:
  (1) The electronic state is orbitally nondegenerate
  (2) There are no thermally accessible electronically excited states
  (3) Hindered rotations indicated by low frequency modes are not
      treated as such but are treated as vibrations and this may
      cause some error
  (4) All equations used are the standard statistical mechanics
      equations for an ideal gas
  (5) All vibrations are strictly harmonic

freq.     160.02  E(vib)   ...       0.39 
freq.     370.42  E(vib)   ...       0.21 
freq.     480.03  E(vib)   ...       0.15 
freq.     509.25  E(vib)   ...       0.14 
freq.     762.58  E(vib)   ...       0.06 
freq.     837.45  E(vib)   ...       0.04 
freq.     883.14  E(vib)   ...       0.04 
freq.    1029.33  E(vib)   ...       0.02 
freq.    1062.52  E(vib)   ...       0.02 
freq.    1189.07  E(vib)   ...       0.01 
freq.    1318.49  E(vib)   ...       0.01 
freq.    1321.62  E(vib)   ...       0.01 
freq.    1404.48  E(vib)   ...       0.00 
freq.    1414.67  E(vib)   ...       0.00 
freq.    1420.87  E(vib)   ...       0.00 
freq.    1422.49  E(vib)   ...       0.00 
freq.    1728.39  E(vib)   ...       0.00 
freq.    2961.68  E(vib)   ...       0.00 
freq.    2976.08  E(vib)   ...       0.00 
freq.    3020.48  E(vib)   ...       0.00 
freq.    3046.67  E(vib)   ...       0.00 
freq.    3066.60  E(vib)   ...       0.00 
freq.    3086.75  E(vib)   ...       0.00 

------------
INNER ENERGY
------------

The inner energy is: U= E(el) + E(ZPE) + E(vib) + E(rot) + E(trans)
    E(el)   - is the total energy from the electronic structure calculation
              = E(kin-el) + E(nuc-el) + E(el-el) + E(nuc-nuc)
    E(ZPE)  - the the zero temperature vibrational energy from the frequency calculation
    E(vib)  - the the finite temperature correction to E(ZPE) due to population
              of excited vibrational states
    E(rot)  - is the rotational thermal energy
    E(trans)- is the translational thermal energy

Summary of contributions to the inner energy U:
Electronic energy                ...   -192.98722579 Eh
Zero point energy                ...      0.08081365 Eh      50.71 kcal/mol
Thermal vibrational correction   ...      0.00176756 Eh       1.11 kcal/mol
Thermal rotational correction    ...      0.00141627 Eh       0.89 kcal/mol
Thermal translational correction ...      0.00141627 Eh       0.89 kcal/mol
-----------------------------------------------------------------------
Total thermal energy                   -192.90181203 Eh


Summary of corrections to the electronic energy:
(perhaps to be used in another calculation)
Total thermal correction                  0.00460011 Eh       2.89 kcal/mol
Non-thermal (ZPE) correction              0.08081365 Eh      50.71 kcal/mol
-----------------------------------------------------------------------
Total correction                          0.08541376 Eh      53.60 kcal/mol


--------
ENTHALPY
--------

The enthalpy is H = U + kB*T
                kB is Boltzmann's constant
Total free energy                 ...   -192.90181203 Eh 
Thermal Enthalpy correction       ...      0.00094421 Eh       0.59 kcal/mol
-----------------------------------------------------------------------
Total Enthalpy                    ...   -192.90086783 Eh


Vibrational entropy computed according to the QRRHO of S. Grimme
Chem.Eur.J. 2012 18 9955


-------
ENTROPY
-------

The entropy contributions are T*S = T*(S(el)+S(vib)+S(rot)+S(trans)
     S(el)   - electronic entropy
     S(vib)  - vibrational entropy
     S(rot)  - rotational entropy
     S(trans)- translational entropy
The entropies will be listed as mutliplied by the temperature to get
units of energy

Electronic entropy                ...      0.00000000 Eh      0.00 kcal/mol
Vibrational entropy               ...      0.00277767 Eh      1.74 kcal/mol
Rotational entropy                ...      0.01044317 Eh      6.55 kcal/mol
Translational entropy             ...      0.01810171 Eh     11.36 kcal/mol
-----------------------------------------------------------------------
Final entropy term                ...      0.03132256 Eh     19.66 kcal/mol


CAUTION: The rotational entropy is not quite correctly treated here
         because it includes a symmetry number that is not yet correctly
         implemented in ORCA!
For a nonlinear molecule the correct rotational entropy is:
    S(rot) = R*(ln(qrot/sn)+1.5)
    R    = 8.31441 J/mol/K = 1.987191683e-3 kcal/mol/K
    qrot = 42581.3325563
    sn is the rotational symmetry number. We have assumed 3 here
       if it is different for your molecule then you should correct
       the printed rotational entropy by manually evaluating the equation
       as given above

For convenience we print out the resulting values for sn=1 - 12:
 sn= 1  qrot/sn=   42581.3326 T*S(rot)=     7.20 kcal/mol T*S(tot)=    20.31 kcal/mol
 sn= 2  qrot/sn=   21290.6663 T*S(rot)=     6.79 kcal/mol T*S(tot)=    19.90 kcal/mol
 sn= 3  qrot/sn=   14193.7775 T*S(rot)=     6.55 kcal/mol T*S(tot)=    19.66 kcal/mol
 sn= 4  qrot/sn=   10645.3331 T*S(rot)=     6.38 kcal/mol T*S(tot)=    19.48 kcal/mol
 sn= 5  qrot/sn=    8516.2665 T*S(rot)=     6.25 kcal/mol T*S(tot)=    19.35 kcal/mol
 sn= 6  qrot/sn=    7096.8888 T*S(rot)=     6.14 kcal/mol T*S(tot)=    19.24 kcal/mol
 sn= 7  qrot/sn=    6083.0475 T*S(rot)=     6.05 kcal/mol T*S(tot)=    19.15 kcal/mol
 sn= 8  qrot/sn=    5322.6666 T*S(rot)=     5.97 kcal/mol T*S(tot)=    19.07 kcal/mol
 sn= 9  qrot/sn=    4731.2592 T*S(rot)=     5.90 kcal/mol T*S(tot)=    19.00 kcal/mol
 sn=10  qrot/sn=    4258.1333 T*S(rot)=     5.84 kcal/mol T*S(tot)=    18.94 kcal/mol
 sn=11  qrot/sn=    3871.0302 T*S(rot)=     5.78 kcal/mol T*S(tot)=    18.89 kcal/mol
 sn=12  qrot/sn=    3548.4444 T*S(rot)=     5.73 kcal/mol T*S(tot)=    18.83 kcal/mol


-------------------
GIBBS FREE ENTHALPY
-------------------

The Gibbs free enthalpy is G = H - T*S

Total enthalpy                    ...   -192.90086783 Eh 
Total entropy correction          ...     -0.03132256 Eh    -19.66 kcal/mol
-----------------------------------------------------------------------
Final Gibbs free enthalpy         ...   -192.93219038 Eh

For completeness - the Gibbs free enthalpy minus the electronic energy
G-E(el)                           ...      0.05503541 Eh     34.54 kcal/mol


Timings for individual modules:

Sum of individual times         ...      194.852 sec (=   3.248 min)
GTO integral calculation        ...        0.274 sec (=   0.005 min)   0.1 %
SCF iterations                  ...       23.180 sec (=   0.386 min)  11.9 %
Analytical frequency calculation...      171.398 sec (=   2.857 min)  88.0 %
                             ****ORCA TERMINATED NORMALLY****
TOTAL RUN TIME: 0 days 0 hours 3 minutes 15 seconds 288 msec
