
                                 *****************
                                 * O   R   C   A *
                                 *****************

           --- An Ab Initio, DFT and Semiempirical electronic structure package ---

                  #######################################################
                  #                        -***-                        #
                  #  Department of molecular theory and spectroscopy    #
                  #              Directorship: Frank Neese              #
                  # Max Planck Institute for Chemical Energy Conversion #
                  #                  D-45470 Muelheim/Ruhr              #
                  #                       Germany                       #
                  #                                                     #
                  #                  All rights reserved                #
                  #                        -***-                        #
                  #######################################################


                         Program Version 4.0.1.2 - RELEASE -


 With contributions from (in alphabetic order):
   Daniel Aravena         : Magnetic Properties
   Michael Atanasov       : Ab Initio Ligand Field Theory
   Ute Becker             : Parallelization
   Martin Brehm           : Molecular dynamics
   Dmytro Bykov           : SCF Hessian
   Vijay G. Chilkuri      : MRCI spin determinant printing
   Dipayan Datta          : RHF DLPNO-CCSD density
   Achintya Kumar Dutta   : EOM-CC, STEOM-CC
   Dmitry Ganyushin       : Spin-Orbit,Spin-Spin,Magnetic field MRCI
   Yang Guo               : DLPNO-NEVPT2, CIM, IAO-localization
   Andreas Hansen         : Spin unrestricted coupled pair/coupled cluster methods
   Lee Huntington         : MR-EOM, pCC
   Robert Izsak           : Overlap fitted RIJCOSX, COSX-SCS-MP3, EOM
   Christian Kollmar      : KDIIS, OOCD, Brueckner-CCSD(T), CCSD density
   Simone Kossmann        : Meta GGA functionals, TD-DFT gradient, OOMP2, MP2 Hessian
   Martin Krupicka        : AUTO-CI
   Dagmar Lenk            : GEPOL surface
   Dimitrios Liakos       : Extrapolation schemes; parallel MDCI
   Dimitrios Manganas     : ROCIS; embedding schemes
   Dimitrios Pantazis     : SARC Basis sets
   Taras Petrenko         : DFT Hessian,TD-DFT gradient, ASA, ECA, R-Raman, ABS, FL, XAS/XES, NRVS
   Peter Pinski           : DLPNO-MP2
   Christoph Reimann      : Effective Core Potentials
   Marius Retegan         : Local ZFS, SOC
   Christoph Riplinger    : Optimizer, TS searches, QM/MM, DLPNO-CCSD(T), (RO)-DLPNO pert. Triples
   Tobias Risthaus        : Range-separated hybrids, TD-DFT gradient, RPA, STAB
   Michael Roemelt        : Restricted open shell CIS
   Masaaki Saitow         : Open-shell DLPNO
   Barbara Sandhoefer     : DKH picture change effects
   Kantharuban Sivalingam : CASSCF convergence, NEVPT2, FIC-MRCI
   Georgi Stoychev        : AutoAux
   Boris Wezisla          : Elementary symmetry handling
   Frank Wennmohs         : Technical directorship


 We gratefully acknowledge several colleagues who have allowed us to
 interface, adapt or use parts of their codes:
   Stefan Grimme, W. Hujo, H. Kruse,             : VdW corrections, initial TS optimization,
                  C. Bannwarth                     DFT functionals, gCP, sTDA/sTD-DF
   Ed Valeev                                     : LibInt (2-el integral package), F12 methods
   Garnet Chan, S. Sharma, J. Yang, R. Olivares  : DMRG
   Ulf Ekstrom                                   : XCFun DFT Library
   Mihaly Kallay                                 : mrcc  (arbitrary order and MRCC methods)
   Andreas Klamt, Michael Diedenhofen            : otool_cosmo (COSMO solvation model)
   Jiri Pittner, Ondrej Demel                    : Mk-CCSD
   Frank Weinhold                                : gennbo (NPA and NBO analysis)
   Christopher J. Cramer and Donald G. Truhlar   : smd solvation model


 Your calculation uses the libint2 library for the computation of 2-el integrals
 For citations please refer to: http://libint.valeyev.net

 This ORCA versions uses:
   CBLAS   interface :  Fast vector & matrix operations
   LAPACKE interface :  Fast linear algebra routines
   SCALAPACK package :  Parallel linear algebra routines




*****************************************
The coordinations will be read from file: C3H6O.xyz
*****************************************


Your calculation utilizes the basis: def2-TZVP
   F. Weigend and R. Ahlrichs, Phys. Chem. Chem. Phys. 7, 3297 (2005).

Your calculation utilizes the auxiliary basis: def2/J
   F. Weigend, Phys. Chem. Chem. Phys. 8, 1057 (2006).

================================================================================
                                        WARNINGS
                       Please study these warnings very carefully!
================================================================================

Warning: TCutStore was < 0. Adjusted to Thresh (uncritical)

WARNING: Geometry Optimization
  ===> : Switching off AutoStart
         For restart on a previous wavefunction, please use MOREAD

INFO   : the flag for use of LIBINT has been found!

================================================================================
                                       INPUT FILE
================================================================================
NAME = opt.inp
|  1> # avogadro generated ORCA input file 
|  2> # Basic Mode
|  3> # 
|  4> ! PBE OPT def2-TZVP
|  5> 
|  6> * xyzfile 0 1 C3H6O.xyz
|  7> 
|  8> 
|  9>                          ****END OF INPUT****
================================================================================

                       *****************************
                       * Geometry Optimization Run *
                       *****************************

Geometry optimization settings:
Update method            Update   .... BFGS
Choice of coordinates    CoordSys .... Redundant Internals
Initial Hessian          InHess   .... Almoef's Model

Convergence Tolerances:
Energy Change            TolE     ....  5.0000e-06 Eh
Max. Gradient            TolMAXG  ....  3.0000e-04 Eh/bohr
RMS Gradient             TolRMSG  ....  1.0000e-04 Eh/bohr
Max. Displacement        TolMAXD  ....  4.0000e-03 bohr
RMS Displacement         TolRMSD  ....  2.0000e-03 bohr

------------------------------------------------------------------------------
                        ORCA OPTIMIZATION COORDINATE SETUP
------------------------------------------------------------------------------

The optimization will be done in new redundant internal coordinates
Making redundant internal coordinates   ...  (new redundants) done
Evaluating the initial hessian          ...  (Almloef) done
Evaluating the coordinates              ...  done
Calculating the B-matrix                .... done
Calculating the G-matrix                .... done
Diagonalizing the G-matrix              .... done
The first mode is                       ....   15
The number of degrees of freedom        ....   24

    -----------------------------------------------------------------
                    Redundant Internal Coordinates


    -----------------------------------------------------------------
         Definition                    Initial Value    Approx d2E/dq
    -----------------------------------------------------------------
      1. B(C   1,O   0)                  1.6623         0.205818   
      2. B(C   2,C   1)                  2.5399         0.009144   
      3. B(H   3,C   1)                  3.0672         0.000252   
      4. B(H   3,C   2)                  1.0700         0.387553   
      5. B(H   4,C   2)                  1.0700         0.387555   
      6. B(H   4,C   1)                  3.0672         0.000252   
      7. B(H   5,C   1)                  3.0672         0.000252   
      8. B(H   5,C   2)                  1.0700         0.387555   
      9. B(C   7,H   6)                  1.3895         0.119819   
     10. B(C   7,C   1)                  2.1957         0.032380   
     11. B(H   8,C   7)                  1.3127         0.158914   
     12. B(H   9,C   7)                  1.3895         0.119818   
     13. A(O   0,C   1,C   2)          117.5614         0.191670   
     14. A(C   2,C   1,C   7)          126.7632         0.157114   
     15. A(O   0,C   1,C   7)          115.6754         0.225688   
     16. A(H   4,C   2,H   5)          109.4712         0.297666   
     17. A(C   1,C   2,H   4)          109.4711         0.192324   
     18. A(C   1,C   2,H   5)          109.4711         0.192324   
     19. A(H   3,C   2,H   4)          109.4714         0.297665   
     20. A(H   3,C   2,H   5)          109.4714         0.297665   
     21. A(C   1,C   2,H   3)          109.4711         0.192323   
     22. A(H   8,C   7,H   9)           80.5197         0.219746   
     23. A(C   1,C   7,H   9)          130.2442         0.194462   
     24. A(H   6,C   7,H   9)           77.9134         0.211652   
     25. A(C   1,C   7,H   8)          136.0477         0.201423   
     26. A(C   1,C   7,H   6)          130.2445         0.194463   
     27. A(H   6,C   7,H   8)           80.5191         0.219747   
     28. D(H   5,C   2,C   1,O   0)     59.9999         0.001506   
     29. D(H   4,C   2,C   1,C   7)    120.0001         0.001506   
     30. D(H   3,C   2,C   1,O   0)    180.0000         0.001506   
     31. D(H   5,C   2,C   1,C   7)   -120.0001         0.001506   
     32. D(H   4,C   2,C   1,O   0)    -59.9999         0.001506   
     33. D(H   3,C   2,C   1,C   7)      0.0000         0.001506   
     34. D(H   6,C   7,C   1,O   0)   -124.5420         0.001572   
     35. D(H   9,C   7,C   1,C   2)    -55.4574         0.001572   
     36. D(H   9,C   7,C   1,O   0)    124.5426         0.001572   
     37. D(H   8,C   7,C   1,C   2)    180.0000         0.001572   
     38. D(H   8,C   7,C   1,O   0)      0.0000         0.001572   
     39. D(H   6,C   7,C   1,C   2)     55.4580         0.001572   
    -----------------------------------------------------------------

Number of atoms                         .... 10
Number of degrees of freedom            .... 39

         *************************************************************
         *                GEOMETRY OPTIMIZATION CYCLE   1            *
         *************************************************************
---------------------------------
CARTESIAN COORDINATES (ANGSTROEM)
---------------------------------
  O      0.277030    2.277830   -0.000000
  C      0.261640    0.615630   -0.000000
  C     -2.000800   -0.538680   -0.000000
  H     -1.860030   -1.599380   -0.000000
  H     -2.547740   -0.251470    0.873650
  H     -2.547740   -0.251470   -0.873650
  H      2.771530   -1.289990   -0.873650
  C      2.231660   -0.353990   -0.000000
  H      3.481870    0.046120    0.000000
  H      2.771520   -1.290000    0.873650

----------------------------
CARTESIAN COORDINATES (A.U.)
----------------------------
  NO LB      ZA    FRAG     MASS         X           Y           Z
   0 O     8.0000    0    15.999    0.523511    4.304475   -0.000000
   1 C     6.0000    0    12.011    0.494428    1.163372   -0.000000
   2 C     6.0000    0    12.011   -3.780964   -1.017958   -0.000000
   3 H     1.0000    0     1.008   -3.514947   -3.022390   -0.000000
   4 H     1.0000    0     1.008   -4.814531   -0.475209    1.650959
   5 H     1.0000    0     1.008   -4.814531   -0.475209   -1.650959
   6 H     1.0000    0     1.008    5.237433   -2.437728   -1.650959
   7 C     6.0000    0    12.011    4.217226   -0.668944   -0.000000
   8 H     1.0000    0     1.008    6.579781    0.087154    0.000000
   9 H     1.0000    0     1.008    5.237414   -2.437747    1.650959

--------------------------------
INTERNAL COORDINATES (ANGSTROEM)
--------------------------------
 O      0   0   0     0.000000000000     0.00000000     0.00000000
 C      1   0   0     1.662271245044     0.00000000     0.00000000
 C      2   1   0     2.539894944619   117.56141396     0.00000000
 H      3   2   1     1.070000319112   109.47114918   180.00000085
 H      3   2   1     1.069998724392   109.47110379   300.00010563
 H      3   2   1     1.069998724392   109.47110379    59.99989437
 H      2   1   3     3.270198727753   125.14111139   160.93137211
 C      7   2   1     1.389539470256    30.83040097    65.20954693
 H      8   7   2     1.312674009875    80.51913923   215.42391674
 H      8   7   2     1.389542321126    77.91339172   133.18338793

---------------------------
INTERNAL COORDINATES (A.U.)
---------------------------
 O      0   0   0     0.000000000000     0.00000000     0.00000000
 C      1   0   0     3.141237413425     0.00000000     0.00000000
 C      2   1   0     4.799705854261   117.56141396     0.00000000
 H      3   2   1     2.022007566330   109.47114918   180.00000085
 H      3   2   1     2.022004552746   109.47110379   300.00010563
 H      3   2   1     2.022004552746   109.47110379    59.99989437
 H      2   1   3     6.179779998952   125.14111139   160.93137211
 C      7   2   1     2.625849051058    30.83040097    65.20954693
 H      8   7   2     2.480594381779    80.51913923   215.42391674
 H      8   7   2     2.625854438421    77.91339172   133.18338793

---------------------
BASIS SET INFORMATION
---------------------
There are 3 groups of distinct atoms

 Group   1 Type O   : 11s6p2d1f contracted to 5s3p2d1f pattern {62111/411/11/1}
 Group   2 Type C   : 11s6p2d1f contracted to 5s3p2d1f pattern {62111/411/11/1}
 Group   3 Type H   : 5s1p contracted to 3s1p pattern {311/1}

Atom   0O    basis set group =>   1
Atom   1C    basis set group =>   2
Atom   2C    basis set group =>   2
Atom   3H    basis set group =>   3
Atom   4H    basis set group =>   3
Atom   5H    basis set group =>   3
Atom   6H    basis set group =>   3
Atom   7C    basis set group =>   2
Atom   8H    basis set group =>   3
Atom   9H    basis set group =>   3
-------------------------------
AUXILIARY BASIS SET INFORMATION
-------------------------------
There are 3 groups of distinct atoms

 Group   1 Type O   : 12s5p4d2f1g contracted to 6s4p3d1f1g pattern {711111/2111/211/2/1}
 Group   2 Type C   : 12s5p4d2f1g contracted to 6s4p3d1f1g pattern {711111/2111/211/2/1}
 Group   3 Type H   : 5s2p1d contracted to 3s1p1d pattern {311/2/1}

Atom   0O    basis set group =>   1
Atom   1C    basis set group =>   2
Atom   2C    basis set group =>   2
Atom   3H    basis set group =>   3
Atom   4H    basis set group =>   3
Atom   5H    basis set group =>   3
Atom   6H    basis set group =>   3
Atom   7C    basis set group =>   2
Atom   8H    basis set group =>   3
Atom   9H    basis set group =>   3
------------------------------------------------------------------------------
                           ORCA GTO INTEGRAL CALCULATION
                           -- RI-GTO INTEGRALS CHOSEN --
------------------------------------------------------------------------------

                         BASIS SET STATISTICS AND STARTUP INFO

Gaussian basis set:
 # of primitive gaussian shells          ...  116
 # of primitive gaussian functions       ...  232
 # of contracted shells                  ...   68
 # of contracted basis functions         ...  160
 Highest angular momentum                ...    3
 Maximum contraction depth               ...    6
Auxiliary gaussian basis set:
 # of primitive gaussian shells          ...  144
 # of primitive gaussian functions       ...  376
 # of contracted shells                  ...   90
 # of contracted aux-basis functions     ...  262
 Highest angular momentum                ...    4
 Maximum contraction depth               ...    7
Ratio of auxiliary to basis functions    ...  1.64
Integral package used                  ... LIBINT
 One Electron integrals                  ... done
 Ordering auxiliary basis shells         ... done
 Integral threshhold             Thresh  ...  2.500e-11
 Primitive cut-off               TCut    ...  2.500e-12
 Pre-screening matrix                    ... done
 Shell pair data                         ... 
 Ordering of the shell pairs             ... done (   0.000 sec) 2093 of 2346 pairs
 Determination of significant pairs      ... done (   0.000 sec)
 Creation of shell pair data             ... done (   0.001 sec)
 Storage of shell pair data              ... done (   0.005 sec)
 Shell pair data done in (   0.007 sec)
 Computing two index integrals           ... done
 Cholesky decomposition of the V-matrix  ... done


Timings:
 Total evaluation time                   ...   0.312 sec (  0.005 min)
 One electron matrix time                ...   0.023 sec (  0.000 min) =  7.5%
 Schwartz matrix evaluation time         ...   0.164 sec (  0.003 min) = 52.7%
 Two index repulsion integral time       ...   0.007 sec (  0.000 min) =  2.1%
 Cholesky decomposition of V             ...   0.087 sec (  0.001 min) = 27.9%
 Three index repulsion integral time     ...   0.000 sec (  0.000 min) =  0.0%

-------------------------------------------------------------------------------
                                 ORCA SCF
-------------------------------------------------------------------------------

------------
SCF SETTINGS
------------
Hamiltonian:
 Density Functional     Method          .... DFT(GTOs)
 Exchange Functional    Exchange        .... PBE
   PBE kappa parameter   XKappa         ....  0.804000
   PBE mue parameter    XMuePBE         ....  0.219520
 Correlation Functional Correlation     .... PBE
   PBE beta parameter  CBetaPBE         ....  0.066725
 LDA part of GGA corr.  LDAOpt          .... PW91-LDA
 Gradients option       PostSCFGGA      .... off
   NL short-range parameter             ....  6.400000
 RI-approximation to the Coulomb term is turned on
   Number of auxiliary basis functions  .... 262


General Settings:
 Integral files         IntName         .... opt
 Hartree-Fock type      HFTyp           .... RHF
 Total Charge           Charge          ....    0
 Multiplicity           Mult            ....    1
 Number of Electrons    NEL             ....   32
 Basis Dimension        Dim             ....  160
 Nuclear Repulsion      ENuc            ....     85.3552976215 Eh

Convergence Acceleration:
 DIIS                   CNVDIIS         .... on
   Start iteration      DIISMaxIt       ....    12
   Startup error        DIISStart       ....  0.200000
   # of expansion vecs  DIISMaxEq       ....     5
   Bias factor          DIISBfac        ....   1.050
   Max. coefficient     DIISMaxC        ....  10.000
 Newton-Raphson         CNVNR           .... off
 SOSCF                  CNVSOSCF        .... on
   Start iteration      SOSCFMaxIt      ....   150
   Startup grad/error   SOSCFStart      ....  0.003300
 Level Shifting         CNVShift        .... on
   Level shift para.    LevelShift      ....    0.2500
   Turn off err/grad.   ShiftErr        ....    0.0010
 Zerner damping         CNVZerner       .... off
 Static damping         CNVDamp         .... on
   Fraction old density DampFac         ....    0.7000
   Max. Damping (<1)    DampMax         ....    0.9800
   Min. Damping (>=0)   DampMin         ....    0.0000
   Turn off err/grad.   DampErr         ....    0.1000
 Fernandez-Rico         CNVRico         .... off

SCF Procedure:
 Maximum # iterations   MaxIter         ....   125
 SCF integral mode      SCFMode         .... Direct
   Integral package                     .... LIBINT
 Reset frequeny         DirectResetFreq ....    20
 Integral Threshold     Thresh          ....  2.500e-11 Eh
 Primitive CutOff       TCut            ....  2.500e-12 Eh

Convergence Tolerance:
 Convergence Check Mode ConvCheckMode   .... Total+1el-Energy
 Convergence forced     ConvForced      .... 0
 Energy Change          TolE            ....  1.000e-08 Eh
 1-El. energy change                    ....  1.000e-05 Eh
 Orbital Gradient       TolG            ....  1.000e-05
 Orbital Rotation angle TolX            ....  1.000e-05
 DIIS Error             TolErr          ....  5.000e-07


Diagonalization of the overlap matrix:
Smallest eigenvalue                        ... 1.521e-03
Time for diagonalization                   ...    0.128 sec
Threshold for overlap eigenvalues          ... 1.000e-08
Number of eigenvalues below threshold      ... 0
Time for construction of square roots      ...    0.005 sec
Total time needed                          ...    0.133 sec

-------------------
DFT GRID GENERATION
-------------------

General Integration Accuracy     IntAcc      ...  4.340
Radial Grid Type                 RadialGrid  ... Gauss-Chebyshev
Angular Grid (max. acc.)         AngularGrid ... Lebedev-110
Angular grid pruning method      GridPruning ... 3 (G Style)
Weight generation scheme         WeightScheme... Becke
Basis function cutoff            BFCut       ...    1.0000e-11
Integration weight cutoff        WCut        ...    1.0000e-14
Grids for H and He will be reduced by one unit

# of grid points (after initial pruning)     ...  11448 (   0.0 sec)
# of grid points (after weights+screening)   ...  11079 (   0.0 sec)
nearest neighbour list constructed           ...    0.0 sec
Grid point re-assignment to atoms done       ...    0.0 sec
Grid point division into batches done        ...    0.0 sec
Reduced shell lists constructed in    0.2 sec

Total number of grid points                  ...    11079
Total number of batches                      ...      178
Average number of points per batch           ...       62
Average number of grid points per atom       ...     1108
Average number of shells per batch           ...    44.44 (65.35%)
Average number of basis functions per batch  ...   104.96 (65.60%)
Average number of large shells per batch     ...    35.22 (79.26%)
Average number of large basis fcns per batch ...    82.26 (78.38%)
Maximum spatial batch extension              ...  22.93, 20.40, 20.05 au
Average spatial batch extension              ...   4.88,  4.67,  4.50 au

Time for grid setup =    0.183 sec

------------------------------
INITIAL GUESS: MODEL POTENTIAL
------------------------------
Loading Hartree-Fock densities                     ... done
Calculating cut-offs                               ... done
Setting up the integral package                    ... done
Initializing the effective Hamiltonian             ... done
Starting the Coulomb interaction                   ... done (   0.1 sec)
Reading the grid                                   ... done
Mapping shells                                     ... done
Starting the XC term evaluation                    ... done (   0.2 sec)
  promolecular density results
     # of electrons  =     31.997547301
     EX              =    -24.804835530
     EC              =     -0.947797730
     EX+EC           =    -25.752633261
Transforming the Hamiltonian                       ... done (   0.0 sec)
Diagonalizing the Hamiltonian                      ... done (   0.0 sec)
Back transforming the eigenvectors                 ... done (   0.0 sec)
Now organizing SCF variables                       ... done
                      ------------------
                      INITIAL GUESS DONE (   0.6 sec)
                      ------------------
--------------
SCF ITERATIONS
--------------
ITER       Energy         Delta-E        Max-DP      RMS-DP      [F,P]     Damp
               ***  Starting incremental Fock matrix formation  ***
  0   -192.1509383908   0.000000000000 0.18037500  0.00357196  0.4364819 0.7000
  1   -192.2430549805  -0.092116589661 0.03332375  0.00112481  0.2016491 0.7000
                               ***Turning on DIIS***
  2   -192.3474739965  -0.104419016009 0.11988279  0.00278631  0.0893133 0.0000
  3   -192.2974163127   0.050057683860 0.01344002  0.00028661  0.4104612 0.7000
  4   -192.3307679435  -0.033351630834 0.01455398  0.00032734  0.3742458 0.7000
  5   -192.3637697988  -0.033001855320 0.01336415  0.00030185  0.3337338 0.7000
  6   -192.3937131390  -0.029943340165 0.01093283  0.00025326  0.2925494 0.7000
  7   -192.4184669840  -0.024753845023 0.02899616  0.00073246  0.2550645 0.7000
  8   -192.4757353478  -0.057268363754 0.01953756  0.00044381  0.1271322 0.7000
  9   -192.4952945529  -0.019559205167 0.03506111  0.00085887  0.0534631 0.0000
 10   -192.5007952333  -0.005500680356 0.00751750  0.00021465  0.0840230 0.0000
 11   -192.5060823524  -0.005287119116 0.00501980  0.00012588  0.0510898 0.0000
 12   -192.5080210498  -0.001938697396 0.00374182  0.00008391  0.0297814 0.0000
 13   -192.5087391229  -0.000718073163 0.00205295  0.00005661  0.0152238 0.0000
 14   -192.5089585996  -0.000219476646 0.00147613  0.00003634  0.0081276 0.0000
                      *** Initiating the SOSCF procedure ***
                           *** Shutting down DIIS ***
                      *** Re-Reading the Fockian *** 
                      *** Removing any level shift *** 
ITER      Energy       Delta-E        Grad      Rot      Max-DP    RMS-DP
 15   -192.50902257  -0.0000639666  0.000420  0.000420  0.000697  0.000020
               *** Restarting incremental Fock matrix formation ***
 16   -192.50903571  -0.0000131462  0.000473  0.004242  0.002850  0.000063
 17   -192.50896142   0.0000742921  0.003354  0.003018  0.002359  0.000043
 18   -192.50903600  -0.0000745827  0.000381  0.005835  0.001847  0.000067
 19   -192.50897799   0.0000580140  0.001682  0.005960  0.001565  0.000062
 20   -192.50903561  -0.0000576221  0.000575  0.004034  0.002250  0.000066
 21   -192.50896932   0.0000662949  0.002036  0.003086  0.001735  0.000053
 22   -192.50903915  -0.0000698383  0.000079  0.000356  0.000267  0.000009
 23   -192.50903865   0.0000004997  0.000177  0.000240  0.000181  0.000006
 24   -192.50903931  -0.0000006525  0.000003  0.000020  0.000010  0.000000
                  ***Gradient check signals convergence***
              ***Rediagonalizing the Fockian in SOSCF/NRSCF***

               *****************************************************
               *                     SUCCESS                       *
               *           SCF CONVERGED AFTER  25 CYCLES          *
               *****************************************************

Setting up the final grid:

General Integration Accuracy     IntAcc      ...  4.670
Radial Grid Type                 RadialGrid  ... Gauss-Chebyshev
Angular Grid (max. acc.)         AngularGrid ... Lebedev-302
Angular grid pruning method      GridPruning ... 3 (G Style)
Weight generation scheme         WeightScheme... Becke
Basis function cutoff            BFCut       ...    1.0000e-11
Integration weight cutoff        WCut        ...    1.0000e-14
Grids for H and He will be reduced by one unit

# of grid points (after initial pruning)     ...  45212 (   0.0 sec)
# of grid points (after weights+screening)   ...  43453 (   0.1 sec)
nearest neighbour list constructed           ...    0.0 sec
Grid point re-assignment to atoms done       ...    0.0 sec
Grid point division into batches done        ...    0.2 sec
Reduced shell lists constructed in    0.7 sec

Total number of grid points                  ...    43453
Total number of batches                      ...      684
Average number of points per batch           ...       63
Average number of grid points per atom       ...     4345
Average number of shells per batch           ...    40.34 (59.33%)
Average number of basis functions per batch  ...    94.43 (59.02%)
Average number of large shells per batch     ...    31.42 (77.88%)
Average number of large basis fcns per batch ...    72.32 (76.59%)
Maximum spatial batch extension              ...  21.83, 20.21, 26.79 au
Average spatial batch extension              ...   3.11,  2.98,  3.04 au

Final grid set up in    0.8 sec
Final integration                            ... done (   0.7 sec)
Change in XC energy                          ...     0.000068256
Integrated number of electrons               ...    31.999978983
Previous integrated no of electrons          ...    31.999528768

----------------
TOTAL SCF ENERGY
----------------

Total Energy       :         -192.50897105 Eh           -5238.43542 eV

Components:
Nuclear Repulsion  :           85.35529762 Eh            2322.63573 eV
Electronic Energy  :         -277.86426867 Eh           -7561.07115 eV
One Electron Energy:         -429.19199869 Eh          -11678.90803 eV
Two Electron Energy:          151.32773002 Eh            4117.83688 eV

Virial components:
Potential Energy   :         -382.67655538 Eh          -10413.15847 eV
Kinetic Energy     :          190.16758433 Eh            5174.72305 eV
Virial Ratio       :            2.01231223


DFT components:
N(Alpha)           :       15.999989491573 electrons
N(Beta)            :       15.999989491573 electrons
N(Total)           :       31.999978983146 electrons
E(X)               :      -25.079545416719 Eh       
E(C)               :       -0.963302659813 Eh       
E(XC)              :      -26.042848076532 Eh       

---------------
SCF CONVERGENCE
---------------

  Last Energy change         ...    1.8723e-09  Tolerance :   1.0000e-08
  Last MAX-Density change    ...    5.3320e-06  Tolerance :   1.0000e-07
  Last RMS-Density change    ...    1.4198e-07  Tolerance :   5.0000e-09
  Last Orbital Gradient      ...    2.1212e-06  Tolerance :   1.0000e-05
  Last Orbital Rotation      ...    9.0179e-06  Tolerance :   1.0000e-05

             **** THE GBW FILE WAS UPDATED (opt.gbw) ****
             **** DENSITY FILE WAS UPDATED (opt.scfp.tmp) ****
             **** ENERGY FILE WAS UPDATED (opt.en.tmp) ****
----------------
ORBITAL ENERGIES
----------------

  NO   OCC          E(Eh)            E(eV) 
   0   2.0000     -18.794658      -511.4286 
   1   2.0000     -10.086801      -274.4758 
   2   2.0000      -9.978801      -271.5370 
   3   2.0000      -9.963700      -271.1261 
   4   2.0000      -0.827057       -22.5054 
   5   2.0000      -0.668523       -18.1914 
   6   2.0000      -0.579816       -15.7776 
   7   2.0000      -0.508437       -13.8353 
   8   2.0000      -0.406909       -11.0726 
   9   2.0000      -0.406773       -11.0688 
  10   2.0000      -0.335246        -9.1225 
  11   2.0000      -0.309742        -8.4285 
  12   2.0000      -0.286444        -7.7945 
  13   2.0000      -0.283436        -7.7127 
  14   2.0000      -0.270106        -7.3500 
  15   2.0000      -0.235880        -6.4186 
  16   0.0000      -0.199712        -5.4344 
  17   0.0000      -0.161494        -4.3945 
  18   0.0000      -0.094702        -2.5770 
  19   0.0000      -0.011796        -0.3210 
  20   0.0000       0.006774         0.1843 
  21   0.0000       0.017712         0.4820 
  22   0.0000       0.022642         0.6161 
  23   0.0000       0.045909         1.2493 
  24   0.0000       0.079145         2.1537 
  25   0.0000       0.079160         2.1540 
  26   0.0000       0.154988         4.2174 
  27   0.0000       0.159374         4.3368 
  28   0.0000       0.174879         4.7587 
  29   0.0000       0.194198         5.2844 
  30   0.0000       0.205455         5.5907 
  31   0.0000       0.227767         6.1979 
  32   0.0000       0.257077         6.9954 
  33   0.0000       0.284146         7.7320 
  34   0.0000       0.294283         8.0078 
  35   0.0000       0.321669         8.7531 
  36   0.0000       0.332533         9.0487 
  37   0.0000       0.333787         9.0828 
  38   0.0000       0.366094         9.9619 
  39   0.0000       0.379667        10.3313 
  40   0.0000       0.402530        10.9534 
  41   0.0000       0.404052        10.9948 
  42   0.0000       0.426853        11.6153 
  43   0.0000       0.452039        12.3006 
  44   0.0000       0.464834        12.6488 
  45   0.0000       0.512096        13.9348 
  46   0.0000       0.518620        14.1124 
  47   0.0000       0.545714        14.8496 
  48   0.0000       0.604827        16.4582 
  49   0.0000       0.618971        16.8430 
  50   0.0000       0.634407        17.2631 
  51   0.0000       0.668756        18.1978 
  52   0.0000       0.685480        18.6528 
  53   0.0000       0.703243        19.1362 
  54   0.0000       0.735658        20.0183 
  55   0.0000       0.766373        20.8541 
  56   0.0000       0.860735        23.4218 
  57   0.0000       0.878497        23.9051 
  58   0.0000       0.884335        24.0640 
  59   0.0000       0.932799        25.3828 
  60   0.0000       0.937055        25.4986 
  61   0.0000       0.985673        26.8215 
  62   0.0000       1.034568        28.1520 
  63   0.0000       1.200489        32.6670 
  64   0.0000       1.266299        34.4577 
  65   0.0000       1.272510        34.6267 
  66   0.0000       1.380313        37.5602 
  67   0.0000       1.381863        37.6024 
  68   0.0000       1.383378        37.6436 
  69   0.0000       1.397986        38.0411 
  70   0.0000       1.399957        38.0948 
  71   0.0000       1.431917        38.9644 
  72   0.0000       1.433676        39.0123 
  73   0.0000       1.446185        39.3527 
  74   0.0000       1.454134        39.5690 
  75   0.0000       1.493070        40.6285 
  76   0.0000       1.500022        40.8177 
  77   0.0000       1.512967        41.1699 
  78   0.0000       1.551839        42.2277 
  79   0.0000       1.619794        44.0768 
  80   0.0000       1.620915        44.1073 
  81   0.0000       1.637439        44.5570 
  82   0.0000       1.653785        45.0018 
  83   0.0000       1.685346        45.8606 
  84   0.0000       1.686720        45.8980 
  85   0.0000       1.719104        46.7792 
  86   0.0000       1.762123        47.9498 
  87   0.0000       1.892898        51.5084 
  88   0.0000       1.924154        52.3589 
  89   0.0000       1.975804        53.7644 
  90   0.0000       1.989163        54.1279 
  91   0.0000       1.996739        54.3340 
  92   0.0000       2.053789        55.8864 
  93   0.0000       2.129258        57.9401 
  94   0.0000       2.172408        59.1142 
  95   0.0000       2.209250        60.1167 
  96   0.0000       2.221366        60.4464 
  97   0.0000       2.310357        62.8680 
  98   0.0000       2.396655        65.2163 
  99   0.0000       2.436390        66.2976 
 100   0.0000       2.454569        66.7922 
 101   0.0000       2.467387        67.1410 
 102   0.0000       2.467719        67.1500 
 103   0.0000       2.482521        67.5528 
 104   0.0000       2.517468        68.5038 
 105   0.0000       2.563268        69.7501 
 106   0.0000       2.585269        70.3487 
 107   0.0000       2.596234        70.6471 
 108   0.0000       2.659220        72.3610 
 109   0.0000       2.712925        73.8224 
 110   0.0000       2.739387        74.5425 
 111   0.0000       2.760423        75.1149 
 112   0.0000       2.774902        75.5089 
 113   0.0000       2.805675        76.3463 
 114   0.0000       2.807969        76.4087 
 115   0.0000       2.838190        77.2311 
 116   0.0000       2.888074        78.5885 
 117   0.0000       2.915908        79.3459 
 118   0.0000       2.925629        79.6104 
 119   0.0000       2.970512        80.8318 
 120   0.0000       3.005488        81.7835 
 121   0.0000       3.009801        81.9008 
 122   0.0000       3.052681        83.0677 
 123   0.0000       3.072011        83.5937 
 124   0.0000       3.088158        84.0330 
 125   0.0000       3.093235        84.1712 
 126   0.0000       3.104042        84.4653 
 127   0.0000       3.144452        85.5649 
 128   0.0000       3.191776        86.8526 
 129   0.0000       3.242660        88.2373 
 130   0.0000       3.286081        89.4188 
 131   0.0000       3.308066        90.0170 
 132   0.0000       3.316510        90.2468 
 133   0.0000       3.376087        91.8680 
 134   0.0000       3.386984        92.1645 
 135   0.0000       3.457085        94.0721 
 136   0.0000       3.489832        94.9632 
 137   0.0000       3.743718       101.8718 
 138   0.0000       3.810447       103.6875 
 139   0.0000       3.833784       104.3226 
 140   0.0000       4.069257       110.7301 
 141   0.0000       4.084398       111.1421 
 142   0.0000       4.129650       112.3735 
 143   0.0000       4.307359       117.2092 
 144   0.0000       5.036420       137.0480 
 145   0.0000       5.036652       137.0543 
 146   0.0000       5.060438       137.7015 
 147   0.0000       5.065405       137.8367 
 148   0.0000       5.234102       142.4272 
 149   0.0000       5.263229       143.2197 
 150   0.0000       5.412023       147.2686 
 151   0.0000       6.091100       165.7472 
 152   0.0000       6.101019       166.0172 
 153   0.0000       6.342266       172.5818 
 154   0.0000       6.376677       173.5182 
 155   0.0000       6.797600       184.9721 
 156   0.0000      21.091181       573.9202 
 157   0.0000      21.450047       583.6855 
 158   0.0000      21.759898       592.1169 
 159   0.0000      42.865078      1166.4181 

                    ********************************
                    * MULLIKEN POPULATION ANALYSIS *
                    ********************************

-----------------------
MULLIKEN ATOMIC CHARGES
-----------------------
   0 O :   -0.276650
   1 C :    0.185493
   2 C :   -0.323003
   3 H :    0.171978
   4 H :    0.165641
   5 H :    0.165641
   6 H :    0.124349
   7 C :   -0.503401
   8 H :    0.165603
   9 H :    0.124349
Sum of atomic charges:    0.0000000

--------------------------------
MULLIKEN REDUCED ORBITAL CHARGES
--------------------------------
  0 O s       :     3.936264  s :     3.936264
      pz      :     1.414007  p :     4.328023
      px      :     1.763459
      py      :     1.150557
      dz2     :     0.001645  d :     0.011808
      dxz     :     0.000002
      dyz     :     0.002734
      dx2y2   :     0.005115
      dxy     :     0.002312
      f0      :     0.000023  f :     0.000555
      f+1     :     0.000001
      f-1     :     0.000089
      f+2     :     0.000097
      f-2     :     0.000000
      f+3     :     0.000118
      f-3     :     0.000228
  1 C s       :     3.712050  s :     3.712050
      pz      :     0.595571  p :     2.035984
      px      :     0.719853
      py      :     0.720560
      dz2     :     0.003122  d :     0.062736
      dxz     :     0.001789
      dyz     :     0.012208
      dx2y2   :     0.016607
      dxy     :     0.029010
      f0      :     0.000385  f :     0.003737
      f+1     :     0.000133
      f-1     :     0.000452
      f+2     :     0.000674
      f-2     :     0.000041
      f+3     :     0.001305
      f-3     :     0.000747
  2 C s       :     3.346895  s :     3.346895
      pz      :     1.095991  p :     2.953770
      px      :     0.833859
      py      :     1.023921
      dz2     :     0.003124  d :     0.021209
      dxz     :     0.008519
      dyz     :    -0.000114
      dx2y2   :     0.007486
      dxy     :     0.002193
      f0      :     0.000022  f :     0.001129
      f+1     :     0.000470
      f-1     :     0.000321
      f+2     :    -0.000048
      f-2     :     0.000026
      f+3     :     0.000079
      f-3     :     0.000259
  3 H s       :     0.805848  s :     0.805848
      pz      :     0.005123  p :     0.022174
      px      :     0.004108
      py      :     0.012943
  4 H s       :     0.812216  s :     0.812216
      pz      :     0.010004  p :     0.022143
      px      :     0.006988
      py      :     0.005151
  5 H s       :     0.812216  s :     0.812216
      pz      :     0.010004  p :     0.022143
      px      :     0.006988
      py      :     0.005151
  6 H s       :     0.862294  s :     0.862294
      pz      :     0.004985  p :     0.013358
      px      :     0.003020
      py      :     0.005353
  7 C s       :     3.492300  s :     3.492300
      pz      :     1.056336  p :     2.963829
      px      :     0.903582
      py      :     1.003912
      dz2     :     0.002640  d :     0.045053
      dxz     :     0.007077
      dyz     :     0.012430
      dx2y2   :     0.013116
      dxy     :     0.009790
      f0      :     0.000285  f :     0.002219
      f+1     :     0.000323
      f-1     :     0.000083
      f+2     :    -0.000010
      f-2     :     0.000631
      f+3     :     0.000581
      f-3     :     0.000326
  8 H s       :     0.818056  s :     0.818056
      pz      :     0.004811  p :     0.016341
      px      :     0.007927
      py      :     0.003604
  9 H s       :     0.862294  s :     0.862294
      pz      :     0.004985  p :     0.013357
      px      :     0.003020
      py      :     0.005353


                     *******************************
                     * LOEWDIN POPULATION ANALYSIS *
                     *******************************

----------------------
LOEWDIN ATOMIC CHARGES
----------------------
   0 O :   -0.170017
   1 C :    0.054121
   2 C :   -0.154938
   3 H :    0.108950
   4 H :    0.110870
   5 H :    0.110870
   6 H :    0.141668
   7 C :   -0.495075
   8 H :    0.151884
   9 H :    0.141668

-------------------------------
LOEWDIN REDUCED ORBITAL CHARGES
-------------------------------
  0 O s       :     3.761107  s :     3.761107
      pz      :     1.390399  p :     4.382736
      px      :     1.736697
      py      :     1.255640
      dz2     :     0.004799  d :     0.025020
      dxz     :     0.000001
      dyz     :     0.002723
      dx2y2   :     0.014489
      dxy     :     0.003008
      f0      :     0.000032  f :     0.001155
      f+1     :     0.000010
      f-1     :     0.000294
      f+2     :     0.000090
      f-2     :     0.000000
      f+3     :     0.000165
      f-3     :     0.000564
  1 C s       :     3.475788  s :     3.475788
      pz      :     0.604314  p :     2.255220
      px      :     0.816628
      py      :     0.834278
      dz2     :     0.018483  d :     0.197359
      dxz     :     0.003389
      dyz     :     0.026806
      dx2y2   :     0.066645
      dxy     :     0.082035
      f0      :     0.001126  f :     0.017513
      f+1     :     0.000514
      f-1     :     0.003644
      f+2     :     0.002076
      f-2     :     0.000099
      f+3     :     0.004586
      f-3     :     0.005468
  2 C s       :     2.990982  s :     2.990982
      pz      :     1.150926  p :     3.061888
      px      :     0.844156
      py      :     1.066806
      dz2     :     0.021851  d :     0.092983
      dxz     :     0.031733
      dyz     :     0.007257
      dx2y2   :     0.025257
      dxy     :     0.006884
      f0      :     0.000135  f :     0.009085
      f+1     :     0.002705
      f-1     :     0.001507
      f+2     :     0.001039
      f-2     :     0.001706
      f+3     :     0.000291
      f-3     :     0.001703
  3 H s       :     0.820228  s :     0.820228
      pz      :     0.015712  p :     0.070822
      px      :     0.012039
      py      :     0.043070
  4 H s       :     0.818304  s :     0.818304
      pz      :     0.033362  p :     0.070826
      px      :     0.021448
      py      :     0.016017
  5 H s       :     0.818304  s :     0.818304
      pz      :     0.033362  p :     0.070826
      px      :     0.021448
      py      :     0.016017
  6 H s       :     0.823794  s :     0.823794
      pz      :     0.012881  p :     0.034538
      px      :     0.007617
      py      :     0.014039
  7 C s       :     3.214700  s :     3.214700
      pz      :     1.134621  p :     3.152182
      px      :     0.946424
      py      :     1.071137
      dz2     :     0.010976  d :     0.119889
      dxz     :     0.014236
      dyz     :     0.032842
      dx2y2   :     0.032028
      dxy     :     0.029806
      f0      :     0.000662  f :     0.008304
      f+1     :     0.001628
      f-1     :     0.000345
      f+2     :     0.000528
      f-2     :     0.002191
      f+3     :     0.001730
      f-3     :     0.001222
  8 H s       :     0.804281  s :     0.804281
      pz      :     0.009544  p :     0.043836
      px      :     0.025257
      py      :     0.009034
  9 H s       :     0.823794  s :     0.823794
      pz      :     0.012881  p :     0.034538
      px      :     0.007617
      py      :     0.014039


                      *****************************
                      * MAYER POPULATION ANALYSIS *
                      *****************************

  NA   - Mulliken gross atomic population
  ZA   - Total nuclear charge
  QA   - Mulliken gross atomic charge
  VA   - Mayer's total valence
  BVA  - Mayer's bonded valence
  FA   - Mayer's free valence

  ATOM       NA         ZA         QA         VA         BVA        FA
  0 O      8.2766     8.0000    -0.2766     2.2101     2.2101     0.0000
  1 C      5.8145     6.0000     0.1855     3.2064     3.2064     0.0000
  2 C      6.3230     6.0000    -0.3230     3.7905     3.7905     0.0000
  3 H      0.8280     1.0000     0.1720     0.9512     0.9512     0.0000
  4 H      0.8344     1.0000     0.1656     0.9616     0.9616     0.0000
  5 H      0.8344     1.0000     0.1656     0.9616     0.9616     0.0000
  6 H      0.8757     1.0000     0.1243     0.9487     0.9487    -0.0000
  7 C      6.5034     6.0000    -0.5034     3.6723     3.6723    -0.0000
  8 H      0.8344     1.0000     0.1656     0.9390     0.9390     0.0000
  9 H      0.8757     1.0000     0.1243     0.9487     0.9487    -0.0000

  Mayer bond orders larger than 0.1
B(  0-O ,  1-C ) :   1.9344 B(  0-O ,  2-C ) :   0.1489 B(  1-C ,  2-C ) :   0.5524 
B(  1-C ,  7-C ) :   0.6475 B(  2-C ,  3-H ) :   0.9474 B(  2-C ,  4-H ) :   0.9544 
B(  2-C ,  5-H ) :   0.9544 B(  2-C ,  7-C ) :   0.1884 B(  6-H ,  7-C ) :   0.9212 
B(  7-C ,  8-H ) :   0.9095 B(  7-C ,  9-H ) :   0.9212 

-------
TIMINGS
-------

Total SCF time: 0 days 0 hours 0 min 18 sec 

Total time                  ....      18.590 sec
Sum of individual times     ....      18.117 sec  ( 97.5%)

Fock matrix formation       ....      16.283 sec  ( 87.6%)
  Split-RI-J                ....       7.458 sec  ( 45.8% of F)
  XC integration            ....       8.363 sec  ( 51.4% of F)
    Basis function eval.    ....       2.572 sec  ( 30.8% of XC)
    Density eval.           ....       1.822 sec  ( 21.8% of XC)
    XC-Functional eval.     ....       0.405 sec  (  4.8% of XC)
    XC-Potential eval.      ....       1.738 sec  ( 20.8% of XC)
Diagonalization             ....       0.133 sec  (  0.7%)
Density matrix formation    ....       0.007 sec  (  0.0%)
Population analysis         ....       0.030 sec  (  0.2%)
Initial guess               ....       0.405 sec  (  2.2%)
Orbital Transformation      ....       0.000 sec  (  0.0%)
Orbital Orthonormalization  ....       0.000 sec  (  0.0%)
DIIS solution               ....       0.227 sec  (  1.2%)
SOSCF solution              ....       0.046 sec  (  0.2%)
Grid generation             ....       0.987 sec  (  5.3%)

-------------------------   --------------------
FINAL SINGLE POINT ENERGY      -192.508971049334
-------------------------   --------------------

------------------------------------------------------------------------------
                         ORCA SCF GRADIENT CALCULATION
------------------------------------------------------------------------------

Gradient of the Kohn-Sham DFT energy:
Kohn-Sham wavefunction type      ... RKS
Hartree-Fock exchange scaling    ...    0.000
Number of operators              ...    1
Number of atoms                  ...   10
Basis set dimensions             ...  160
Integral neglect threshold       ... 2.5e-11
Integral primitive cutoff        ... 2.5e-12

Nuclear repulsion gradient       ... done
One Electron Gradient            ... done
Pre-screening matrix             ... done
RI-J gradient                    ... done
Exchange-correlation gradient    ... done

------------------
CARTESIAN GRADIENT
------------------

   1   O   :    0.001011446    0.197001210   -0.000000007
   2   C   :   -0.020639158   -0.152675223    0.000000121
   3   C   :   -0.007612233    0.001112068   -0.000000015
   4   H   :   -0.020732307    0.014807209   -0.000000000
   5   H   :   -0.006792392   -0.016655158   -0.019953426
   6   H   :   -0.006792399   -0.016655161    0.019953429
   7   H   :    0.057463785   -0.048295681   -0.022829331
   8   C   :   -0.129269648    0.090635548   -0.000000248
   9   H   :    0.075899841   -0.020978184   -0.000000421
  10   H   :    0.057463066   -0.048296628    0.022829898

Difference to translation invariance:
           :    0.0000000000   -0.0000000000    0.0000000000

Norm of the cartesian gradient     ...    0.3288398221
RMS gradient                       ...    0.0600376628
MAX gradient                       ...    0.1970012104

-------
TIMINGS
-------

Total SCF gradient time            ...        4.015 sec

One electron gradient       ....       0.084 sec  (  2.1%)
Prescreening matrices       ....       0.205 sec  (  5.1%)
RI-J Coulomb gradient       ....       0.793 sec  ( 19.7%)
XC gradient                 ....       2.718 sec  ( 67.7%)
------------------------------------------------------------------------------
                         ORCA GEOMETRY RELAXATION STEP
------------------------------------------------------------------------------

Reading the OPT-File                    .... done
Getting information on internals        .... done
Copying old internal coords+grads       .... done
Making the new internal coordinates     .... (new redundants).... done
Validating the new internal coordinates .... (new redundants).... done
Calculating the B-matrix                .... done
Calculating the G,G- and P matrices     .... done
Transforming gradient to internals      .... done
Projecting the internal gradient        .... done
Number of atoms                         ....  10
Number of internal coordinates          ....  39
Current Energy                          ....  -192.508971049 Eh
Current gradient norm                   ....     0.328839822 Eh/bohr
Maximum allowed component of the step   ....  0.300
Current trust radius                    ....  0.300
Evaluating the initial hessian          ....  (Almloef) done
Projecting the Hessian                  .... done
Forming the augmented Hessian           .... done
Diagonalizing the augmented Hessian     .... done
Last element of RFO vector              ....  0.802974103
Lowest eigenvalues of augmented Hessian:
 -0.191562165  0.001506264  0.001538388  0.001571591  0.003735322
Length of the computed step             ....  0.742257957
Warning: the length of the step is outside the trust region - taking restricted step instead
The input lambda is                     ....    -0.191562
   iter:   1  x=   -0.329166  g=    3.349818 f(x)=     0.460947
   iter:   2  x=   -0.492962  g=    1.149620 f(x)=     0.188304
   iter:   3  x=   -0.632062  g=    0.475353 f(x)=     0.066122
   iter:   4  x=   -0.693851  g=    0.266077 f(x)=     0.016441
   iter:   5  x=   -0.702021  g=    0.212554 f(x)=     0.001737
   iter:   6  x=   -0.702140  g=    0.206593 f(x)=     0.000025
   iter:   7  x=   -0.702140  g=    0.206509 f(x)=     0.000000
   iter:   8  x=   -0.702140  g=    0.206509 f(x)=     0.000000
The output lambda is                    ....    -0.702140 (8 iterations)
The final length of the internal step   ....  0.300000000
Converting the step to cartesian space:
 Initial RMS(Int)=    0.0480384461
Transforming coordinates:
 Iter   0:  RMS(Cart)=    0.0738502384 RMS(Int)=    1.4236698169
 Iter   1:  RMS(Cart)=    0.0009190400 RMS(Int)=    0.0006624859
 Iter   2:  RMS(Cart)=    0.0000258110 RMS(Int)=    0.0000238973
 Iter   3:  RMS(Cart)=    0.0000012700 RMS(Int)=    0.0000008103
 Iter   4:  RMS(Cart)=    0.0000000661 RMS(Int)=    0.0000000462
done
Storing new coordinates                 .... done

                                .--------------------.
          ----------------------|Geometry convergence|-------------------------
          Item                value                   Tolerance       Converged
          ---------------------------------------------------------------------
          RMS gradient        0.0422363370            0.0001000000      NO
          MAX gradient        0.1970021150            0.0003000000      NO
          RMS step            0.0480384461            0.0020000000      NO
          MAX step            0.2169726223            0.0040000000      NO
          ........................................................
          Max(Bonds)      0.1148      Max(Angles)    3.02
          Max(Dihed)        0.08      Max(Improp)    0.00
          ---------------------------------------------------------------------

The optimization has not yet converged - more geometry cycles are needed


    ---------------------------------------------------------------------------
                         Redundant Internal Coordinates
                            (Angstroem and degrees)

        Definition                    Value    dE/dq     Step     New-Value
    ----------------------------------------------------------------------------
     1. B(C   1,O   0)                1.6623  0.197002 -0.1148    1.5475   
     2. B(C   2,C   1)                2.5399  0.011291 -0.0079    2.5319   
     3. B(H   3,C   1)                3.0672  0.010919 -0.0084    3.0588   
     4. B(H   3,C   2)                1.0700 -0.024228  0.0118    1.0818   
     5. B(H   4,C   2)                1.0700 -0.025116  0.0123    1.0823   
     6. B(H   4,C   1)                3.0672  0.012523 -0.0096    3.0576   
     7. B(H   5,C   1)                3.0672  0.012523 -0.0096    3.0576   
     8. B(H   5,C   2)                1.0700 -0.025116  0.0123    1.0823   
     9. B(C   7,H   6)                1.3895  0.069211 -0.0446    1.3450   
    10. B(C   7,C   1)                2.1957  0.067123 -0.0484    2.1474   
    11. B(H   8,C   7)                1.3127  0.065894 -0.0405    1.2722   
    12. B(H   9,C   7)                1.3895  0.069212 -0.0446    1.3450   
    13. A(O   0,C   1,C   2)          117.56 -0.005150    0.34    117.90   
    14. A(C   2,C   1,C   7)          126.76  0.007744   -0.51    126.26   
    15. A(O   0,C   1,C   7)          115.68 -0.002594    0.17    115.84   
    16. A(H   4,C   2,H   5)          109.47 -0.010737    0.64    110.11   
    17. A(C   1,C   2,H   4)          109.47  0.011120   -0.67    108.80   
    18. A(C   1,C   2,H   5)          109.47  0.011120   -0.67    108.80   
    19. A(H   3,C   2,H   4)          109.47 -0.010628    0.63    110.10   
    20. A(H   3,C   2,H   5)          109.47 -0.010628    0.63    110.10   
    21. A(C   1,C   2,H   3)          109.47  0.009752   -0.57    108.90   
    22. A(H   8,C   7,H   9)           80.52 -0.048361    3.02     83.54   
    23. A(C   1,C   7,H   9)          130.24  0.029271   -1.84    128.41   
    24. A(H   6,C   7,H   9)           77.91 -0.041251    2.61     80.52   
    25. A(C   1,C   7,H   8)          136.05  0.032421   -2.03    134.02   
    26. A(C   1,C   7,H   6)          130.24  0.029272   -1.84    128.41   
    27. A(H   6,C   7,H   8)           80.52 -0.048362    3.02     83.54   
    28. D(H   5,C   2,C   1,O   0)     60.00  0.000235   -0.02     59.98   
    29. D(H   4,C   2,C   1,C   7)    120.00 -0.000235    0.02    120.02   
    30. D(H   3,C   2,C   1,O   0)    180.00 -0.000000    0.00    180.00   
    31. D(H   5,C   2,C   1,C   7)   -120.00  0.000235   -0.02   -120.02   
    32. D(H   4,C   2,C   1,O   0)    -60.00 -0.000235    0.02    -59.98   
    33. D(H   3,C   2,C   1,C   7)      0.00  0.000000   -0.00     -0.00   
    34. D(H   6,C   7,C   1,O   0)   -124.54 -0.001067    0.08   -124.46   
    35. D(H   9,C   7,C   1,C   2)    -55.46  0.001067   -0.08    -55.54   
    36. D(H   9,C   7,C   1,O   0)    124.54  0.001067   -0.08    124.46   
    37. D(H   8,C   7,C   1,C   2)    180.00 -0.000000    0.00    180.00   
    38. D(H   8,C   7,C   1,O   0)      0.00 -0.000000    0.00      0.00   
    39. D(H   6,C   7,C   1,C   2)     55.46 -0.001067    0.08     55.54   
    ----------------------------------------------------------------------------

         *************************************************************
         *                GEOMETRY OPTIMIZATION CYCLE   2            *
         *************************************************************
---------------------------------
CARTESIAN COORDINATES (ANGSTROEM)
---------------------------------
  O      0.316530    2.162584    0.000000
  C      0.293771    0.615297    0.000000
  C     -1.961119   -0.536482   -0.000000
  H     -1.807579   -1.607390    0.000000
  H     -2.504910   -0.238725    0.887098
  H     -2.504910   -0.238725   -0.887098
  H      2.690876   -1.257151   -0.869171
  C      2.212380   -0.349100    0.000000
  H      3.413035    0.071451    0.000000
  H      2.690867   -1.257161    0.869171

----------------------------
CARTESIAN COORDINATES (A.U.)
----------------------------
  NO LB      ZA    FRAG     MASS         X           Y           Z
   0 O     8.0000    0    15.999    0.598154    4.086692    0.000000
   1 C     6.0000    0    12.011    0.555147    1.162744    0.000000
   2 C     6.0000    0    12.011   -3.705978   -1.013803   -0.000000
   3 H     1.0000    0     1.008   -3.415829   -3.037527    0.000000
   4 H     1.0000    0     1.008   -4.733594   -0.451124    1.676372
   5 H     1.0000    0     1.008   -4.733594   -0.451125   -1.676372
   6 H     1.0000    0     1.008    5.085019   -2.375672   -1.642495
   7 C     6.0000    0    12.011    4.180791   -0.659703    0.000000
   8 H     1.0000    0     1.008    6.449701    0.135023    0.000001
   9 H     1.0000    0     1.008    5.085002   -2.375689    1.642494

--------------------------------
INTERNAL COORDINATES (ANGSTROEM)
--------------------------------
 O      0   0   0     0.000000000000     0.00000000     0.00000000
 C      1   0   0     1.547454279293     0.00000000     0.00000000
 C      2   1   0     2.532019641034   117.90025212     0.00000000
 H      3   2   1     1.081859220852   108.89846463   180.00000000
 H      3   2   1     1.082270805549   108.80274744   300.01762151
 H      3   2   1     1.082270807309   108.80274702    59.98237936
 H      2   1   3     3.163484646610   125.49881878   160.27662396
 C      7   2   1     1.344981354030    32.14086070    65.71318271
 H      8   7   2     1.272177434518    83.53604706   216.64271053
 H      8   7   2     1.344983810490    80.51621863   132.14772411

---------------------------
INTERNAL COORDINATES (A.U.)
---------------------------
 O      0   0   0     0.000000000000     0.00000000     0.00000000
 C      1   0   0     2.924264792629     0.00000000     0.00000000
 C      2   1   0     4.784823687264   117.90025212     0.00000000
 H      3   2   1     2.044417642867   108.89846463   180.00000000
 H      3   2   1     2.045195425226   108.80274744   300.01762151
 H      3   2   1     2.045195428553   108.80274702    59.98237936
 H      2   1   3     5.978119610958   125.49881878   160.27662396
 C      7   2   1     2.541646414348    32.14086070    65.71318271
 H      8   7   2     2.404066944993    83.53604706   216.64271053
 H      8   7   2     2.541651056384    80.51621863   132.14772411

 One Electron integrals                  ... done
 Pre-screening matrix                    ... done

Diagonalization of the overlap matrix:
Smallest eigenvalue                        ... 1.574e-03
Time for diagonalization                   ...    0.005 sec
Threshold for overlap eigenvalues          ... 1.000e-08
Number of eigenvalues below threshold      ... 0
Time for construction of square roots      ...    0.049 sec
Total time needed                          ...    0.054 sec

-------------------
DFT GRID GENERATION
-------------------

General Integration Accuracy     IntAcc      ...  4.340
Radial Grid Type                 RadialGrid  ... Gauss-Chebyshev
Angular Grid (max. acc.)         AngularGrid ... Lebedev-110
Angular grid pruning method      GridPruning ... 3 (G Style)
Weight generation scheme         WeightScheme... Becke
Basis function cutoff            BFCut       ...    1.0000e-11
Integration weight cutoff        WCut        ...    1.0000e-14
Grids for H and He will be reduced by one unit

# of grid points (after initial pruning)     ...  11448 (   0.0 sec)
# of grid points (after weights+screening)   ...  11076 (   0.0 sec)
nearest neighbour list constructed           ...    0.0 sec
Grid point re-assignment to atoms done       ...    0.0 sec
Grid point division into batches done        ...    0.0 sec
Reduced shell lists constructed in    0.2 sec

Total number of grid points                  ...    11076
Total number of batches                      ...      178
Average number of points per batch           ...       62
Average number of grid points per atom       ...     1108
Average number of shells per batch           ...    45.22 (66.51%)
Average number of basis functions per batch  ...   107.31 (67.07%)
Average number of large shells per batch     ...    35.87 (79.32%)
Average number of large basis fcns per batch ...    83.99 (78.27%)
Maximum spatial batch extension              ...  22.93, 20.46, 20.05 au
Average spatial batch extension              ...   4.80,  4.76,  4.40 au

Time for grid setup =    0.182 sec

--------------
SCF ITERATIONS
--------------
ITER       Energy         Delta-E        Max-DP      RMS-DP      [F,P]     Damp
               ***  Starting incremental Fock matrix formation  ***
  0   -192.5844185109   0.000000000000 0.00610892  0.00015301  0.0373945 0.7000
                      *** Initiating the SOSCF procedure ***
                      *** Re-Reading the Fockian *** 
                      *** Removing any level shift *** 
ITER      Energy       Delta-E        Grad      Rot      Max-DP    RMS-DP
  1   -192.58570793  -0.0012894169  0.002623  0.002623  0.012981  0.000436
               *** Restarting incremental Fock matrix formation ***
  2   -192.58824975  -0.0025418252  0.005063  0.101267  0.026359  0.000969
  3   -192.57459415   0.0136556038  0.041154  0.094612  0.025177  0.000883
  4   -192.58847745  -0.0138833054  0.003191  0.011261  0.009333  0.000269
  5   -192.58772014   0.0007573171  0.009180  0.013681  0.006276  0.000218
  6   -192.58832445  -0.0006043138  0.005510  0.030001  0.013419  0.000492
  7   -192.58603606   0.0022883960  0.010088  0.019527  0.009685  0.000362
  8   -192.58857893  -0.0025428750  0.002056  0.011892  0.005744  0.000215
  9   -192.58821012   0.0003688088  0.005025  0.008379  0.004237  0.000162
 10   -192.58864091  -0.0004307912  0.000083  0.000431  0.000174  0.000007
 11   -192.58864097  -0.0000000621  0.000073  0.000137  0.000085  0.000003
 12   -192.58864121  -0.0000002332  0.000004  0.000014  0.000007  0.000000
                 **** Energy Check signals convergence ****
              ***Rediagonalizing the Fockian in SOSCF/NRSCF***

               *****************************************************
               *                     SUCCESS                       *
               *           SCF CONVERGED AFTER  13 CYCLES          *
               *****************************************************

Setting up the final grid:

General Integration Accuracy     IntAcc      ...  4.670
Radial Grid Type                 RadialGrid  ... Gauss-Chebyshev
Angular Grid (max. acc.)         AngularGrid ... Lebedev-302
Angular grid pruning method      GridPruning ... 3 (G Style)
Weight generation scheme         WeightScheme... Becke
Basis function cutoff            BFCut       ...    1.0000e-11
Integration weight cutoff        WCut        ...    1.0000e-14
Grids for H and He will be reduced by one unit

# of grid points (after initial pruning)     ...  45212 (   0.0 sec)
# of grid points (after weights+screening)   ...  43417 (   0.1 sec)
nearest neighbour list constructed           ...    0.0 sec
Grid point re-assignment to atoms done       ...    0.0 sec
Grid point division into batches done        ...    0.2 sec
Reduced shell lists constructed in    0.7 sec

Total number of grid points                  ...    43417
Total number of batches                      ...      682
Average number of points per batch           ...       63
Average number of grid points per atom       ...     4342
Average number of shells per batch           ...    40.88 (60.12%)
Average number of basis functions per batch  ...    96.01 (60.01%)
Average number of large shells per batch     ...    31.92 (78.08%)
Average number of large basis fcns per batch ...    73.62 (76.68%)
Maximum spatial batch extension              ...  21.24, 19.95, 19.67 au
Average spatial batch extension              ...   3.09,  3.01,  2.99 au

Final grid set up in    0.8 sec
Final integration                            ... done (   0.7 sec)
Change in XC energy                          ...     0.000040152
Integrated number of electrons               ...    31.999973318
Previous integrated no of electrons          ...    31.999324683
Total Energy       :         -192.58860106 Eh           -5240.60226 eV
  Last Energy change         ...   -1.1240e-09  Tolerance :   1.0000e-08
  Last MAX-Density change    ...    2.7350e-06  Tolerance :   1.0000e-07
             **** THE GBW FILE WAS UPDATED (opt.gbw) ****
             **** DENSITY FILE WAS UPDATED (opt.scfp.tmp) ****
             **** ENERGY FILE WAS UPDATED (opt.en.tmp) ****
Total SCF time: 0 days 0 hours 0 min 10 sec 

-------------------------   --------------------
FINAL SINGLE POINT ENERGY      -192.588601057205
-------------------------   --------------------

------------------------------------------------------------------------------
                         ORCA SCF GRADIENT CALCULATION
------------------------------------------------------------------------------

Gradient of the Kohn-Sham DFT energy:
Kohn-Sham wavefunction type      ... RKS
Hartree-Fock exchange scaling    ...    0.000
Number of operators              ...    1
Number of atoms                  ...   10
Basis set dimensions             ...  160
Integral neglect threshold       ... 2.5e-11
Integral primitive cutoff        ... 2.5e-12

Nuclear repulsion gradient       ... done
One Electron Gradient            ... done
Pre-screening matrix             ... done
RI-J gradient                    ... done
Exchange-correlation gradient    ... done

------------------
CARTESIAN GRADIENT
------------------

   1   O   :    0.002443444    0.211262765   -0.000000014
   2   C   :   -0.023001147   -0.166366514    0.000000111
   3   C   :   -0.005473861    0.002007157   -0.000000012
   4   H   :   -0.017194001    0.006169042   -0.000000001
   5   H   :   -0.009756649   -0.012777867   -0.011674353
   6   H   :   -0.009756651   -0.012777872    0.011674356
   7   H   :    0.053500617   -0.047853092   -0.023187414
   8   C   :   -0.114288944    0.087801191   -0.000000178
   9   H   :    0.070027256   -0.019610792   -0.000000418
  10   H   :    0.053499936   -0.047854018    0.023187924

Difference to translation invariance:
           :    0.0000000000   -0.0000000000    0.0000000000

Norm of the cartesian gradient     ...    0.3338281356
RMS gradient                       ...    0.0609484001
MAX gradient                       ...    0.2112627649

-------
TIMINGS
-------

Total SCF gradient time            ...        3.783 sec

One electron gradient       ....       0.086 sec  (  2.3%)
Prescreening matrices       ....       0.204 sec  (  5.4%)
RI-J Coulomb gradient       ....       0.715 sec  ( 18.9%)
XC gradient                 ....       2.614 sec  ( 69.1%)
------------------------------------------------------------------------------
                         ORCA GEOMETRY RELAXATION STEP
------------------------------------------------------------------------------

Reading the OPT-File                    .... done
Getting information on internals        .... done
Copying old internal coords+grads       .... done
Making the new internal coordinates     .... (new redundants).... done
Validating the new internal coordinates .... (new redundants).... done
Calculating the B-matrix                .... done
Calculating the G,G- and P matrices     .... done
Transforming gradient to internals      .... done
Projecting the internal gradient        .... done
Number of atoms                         ....  10
Number of internal coordinates          ....  39
Current Energy                          ....  -192.588601057 Eh
Current gradient norm                   ....     0.333828136 Eh/bohr
Maximum allowed component of the step   ....  0.300
Current trust radius                    ....  0.300
Updating the Hessian (BFGS)             .... done
Forming the augmented Hessian           .... done
Diagonalizing the augmented Hessian     .... done
Last element of RFO vector              ....  0.404816574
Lowest eigenvalues of augmented Hessian:
 -0.360584082 -0.215196626  0.001506264  0.001538388  0.001571591
Length of the computed step             ....  2.258795641
Warning: the length of the step is outside the trust region - taking restricted step instead
The input lambda is                     ....    -0.360584
   iter:   1  x=   -0.382166  g=  232.239141 f(x)=     5.012158
   iter:   2  x=   -0.417138  g=   65.635635 f(x)=     2.295395
   iter:   3  x=   -0.475641  g=   18.229691 f(x)=     1.066502
   iter:   4  x=   -0.571951  g=    5.145755 f(x)=     0.495586
   iter:   5  x=   -0.708928  g=    1.600647 f(x)=     0.219252
   iter:   6  x=   -0.848803  g=    0.603899 f(x)=     0.084470
   iter:   7  x=   -0.928105  g=    0.305573 f(x)=     0.024233
   iter:   8  x=   -0.943818  g=    0.223177 f(x)=     0.003507
   iter:   9  x=   -0.944292  g=    0.210634 f(x)=     0.000100
   iter:  10  x=   -0.944292  g=    0.210271 f(x)=     0.000000
   iter:  11  x=   -0.944292  g=    0.210271 f(x)=     0.000000
   iter:  12  x=   -0.944292  g=    0.210271 f(x)=     0.000000
The output lambda is                    ....    -0.944292 (12 iterations)
The final length of the internal step   ....  0.300000000
Converting the step to cartesian space:
 Initial RMS(Int)=    0.0480384461
Transforming coordinates:
 Iter   0:  RMS(Cart)=    0.0672776874 RMS(Int)=    0.0480000834
 Iter   1:  RMS(Cart)=    0.0006030659 RMS(Int)=    0.0004347217
 Iter   2:  RMS(Cart)=    0.0000164673 RMS(Int)=    0.0000141832
 Iter   3:  RMS(Cart)=    0.0000011716 RMS(Int)=    0.0000006657
 Iter   4:  RMS(Cart)=    0.0000000986 RMS(Int)=    0.0000000521
done
Storing new coordinates                 .... done

                                .--------------------.
          ----------------------|Geometry convergence|-------------------------
          Item                value                   Tolerance       Converged
          ---------------------------------------------------------------------
          Energy change      -0.0796300079            0.0000050000      NO
          RMS gradient        0.0428931111            0.0001000000      NO
          MAX gradient        0.2112758495            0.0003000000      NO
          RMS step            0.0480384461            0.0020000000      NO
          MAX step            0.2547770845            0.0040000000      NO
          ........................................................
          Max(Bonds)      0.1348      Max(Angles)    2.45
          Max(Dihed)        0.15      Max(Improp)    0.00
          ---------------------------------------------------------------------

The optimization has not yet converged - more geometry cycles are needed


    ---------------------------------------------------------------------------
                         Redundant Internal Coordinates
                            (Angstroem and degrees)

        Definition                    Value    dE/dq     Step     New-Value
    ----------------------------------------------------------------------------
     1. B(C   1,O   0)                1.5475  0.211276 -0.1348    1.4126   
     2. B(C   2,C   1)                2.5320  0.010180 -0.0051    2.5269   
     3. B(H   3,C   1)                3.0588  0.011372 -0.0067    3.0520   
     4. B(H   3,C   2)                1.0819 -0.015617  0.0005    1.0823   
     5. B(H   4,C   2)                1.0823 -0.016280  0.0006    1.0829   
     6. B(H   4,C   1)                3.0576  0.013042 -0.0077    3.0499   
     7. B(H   5,C   1)                3.0576  0.013042 -0.0077    3.0499   
     8. B(H   5,C   2)                1.0823 -0.016280  0.0006    1.0829   
     9. B(C   7,H   6)                1.3450  0.066325 -0.0342    1.3108   
    10. B(C   7,C   1)                2.1474  0.068412 -0.0405    2.1069   
    11. B(H   8,C   7)                1.2722  0.059608 -0.0264    1.2458   
    12. B(H   9,C   7)                1.3450  0.066325 -0.0342    1.3108   
    13. A(O   0,C   1,C   2)          117.90 -0.005142    0.32    118.22   
    14. A(C   2,C   1,C   7)          126.26  0.008338   -0.58    125.67   
    15. A(O   0,C   1,C   7)          115.84 -0.003196    0.27    116.11   
    16. A(H   4,C   2,H   5)          110.10 -0.007897    0.19    110.29   
    17. A(C   1,C   2,H   4)          108.80  0.008456   -0.22    108.59   
    18. A(C   1,C   2,H   5)          108.80  0.008456   -0.22    108.59   
    19. A(H   3,C   2,H   4)          110.10 -0.007807    0.18    110.28   
    20. A(H   3,C   2,H   5)          110.10 -0.007807    0.18    110.28   
    21. A(C   1,C   2,H   3)          108.90  0.007176   -0.14    108.75   
    22. A(H   8,C   7,H   9)           83.54 -0.045476    2.45     85.99   
    23. A(C   1,C   7,H   9)          128.39  0.028140   -1.53    126.87   
    24. A(H   6,C   7,H   9)           80.52 -0.039483    2.24     82.75   
    25. A(C   1,C   7,H   8)          134.01  0.031052   -1.68    132.33   
    26. A(C   1,C   7,H   6)          128.40  0.028141   -1.53    126.87   
    27. A(H   6,C   7,H   8)           83.54 -0.045477    2.45     85.99   
    28. D(H   5,C   2,C   1,O   0)     59.98  0.000207   -0.01     59.97   
    29. D(H   4,C   2,C   1,C   7)    120.02 -0.000207    0.01    120.03   
    30. D(H   3,C   2,C   1,O   0)   -180.00 -0.000000    0.00   -180.00   
    31. D(H   5,C   2,C   1,C   7)   -120.02  0.000207   -0.01   -120.03   
    32. D(H   4,C   2,C   1,O   0)    -59.98 -0.000207    0.01    -59.97   
    33. D(H   3,C   2,C   1,C   7)     -0.00  0.000000   -0.00     -0.00   
    34. D(H   6,C   7,C   1,O   0)   -124.46 -0.001476    0.15   -124.31   
    35. D(H   9,C   7,C   1,C   2)    -55.54  0.001476   -0.15    -55.69   
    36. D(H   9,C   7,C   1,O   0)    124.46  0.001476   -0.15    124.31   
    37. D(H   8,C   7,C   1,C   2)   -180.00 -0.000000    0.00   -180.00   
    38. D(H   8,C   7,C   1,O   0)      0.00 -0.000000    0.00      0.00   
    39. D(H   6,C   7,C   1,C   2)     55.54 -0.001476    0.15     55.69   
    ----------------------------------------------------------------------------

         *************************************************************
         *                GEOMETRY OPTIMIZATION CYCLE   3            *
         *************************************************************
---------------------------------
CARTESIAN COORDINATES (ANGSTROEM)
---------------------------------
  O      0.348100    2.034270    0.000000
  C      0.321253    0.621893    0.000000
  C     -1.927649   -0.530308   -0.000000
  H     -1.770036   -1.601072    0.000000
  H     -2.469023   -0.230564    0.888604
  H     -2.469023   -0.230564   -0.888604
  H      2.624081   -1.226395   -0.866395
  C      2.195112   -0.341181    0.000000
  H      3.362052    0.094926    0.000001
  H      2.624073   -1.226404    0.866394

----------------------------
CARTESIAN COORDINATES (A.U.)
----------------------------
  NO LB      ZA    FRAG     MASS         X           Y           Z
   0 O     8.0000    0    15.999    0.657814    3.844213    0.000000
   1 C     6.0000    0    12.011    0.607079    1.175208    0.000000
   2 C     6.0000    0    12.011   -3.642729   -1.002136   -0.000000
   3 H     1.0000    0     1.008   -3.344884   -3.025588    0.000000
   4 H     1.0000    0     1.008   -4.665777   -0.435703    1.679218
   5 H     1.0000    0     1.008   -4.665776   -0.435704   -1.679218
   6 H     1.0000    0     1.008    4.958795   -2.317551   -1.637249
   7 C     6.0000    0    12.011    4.148160   -0.644739    0.000001
   8 H     1.0000    0     1.008    6.353357    0.179384    0.000001
   9 H     1.0000    0     1.008    4.958779   -2.317568    1.637247

--------------------------------
INTERNAL COORDINATES (ANGSTROEM)
--------------------------------
 O      0   0   0     0.000000000000     0.00000000     0.00000000
 C      1   0   0     1.412632054230     0.00000000     0.00000000
 C      2   1   0     2.526880755667   118.21684194     0.00000000
 H      3   2   1     1.082302488289   108.75423793   180.00000085
 H      3   2   1     1.082842629168   108.58652423   300.02839610
 H      3   2   1     1.082842633158   108.58652404    59.97160492
 H      2   1   3     3.077309009375   125.89401727   159.66307969
 C      7   2   1     1.310823824258    33.21903614    66.28530820
 H      8   7   2     1.245768224271    85.97814100   217.76138226
 H      8   7   2     1.310825929947    82.74527319   131.31135264

---------------------------
INTERNAL COORDINATES (A.U.)
---------------------------
 O      0   0   0     0.000000000000     0.00000000     0.00000000
 C      1   0   0     2.669487710494     0.00000000     0.00000000
 C      2   1   0     4.775112601287   118.21684194     0.00000000
 H      3   2   1     2.045255296927   108.75423793   180.00000085
 H      3   2   1     2.046276015262   108.58652423   300.02839610
 H      3   2   1     2.046276022802   108.58652404    59.97160492
 H      2   1   3     5.815271257167   125.89401727   159.66307969
 C      7   2   1     2.477098037667    33.21903614    66.28530820
 H      8   7   2     2.354160770213    85.97814100   217.76138226
 H      8   7   2     2.477102016843    82.74527319   131.31135264

 One Electron integrals                  ... done
 Pre-screening matrix                    ... done

Diagonalization of the overlap matrix:
Smallest eigenvalue                        ... 1.561e-03
Time for diagonalization                   ...    0.005 sec
Threshold for overlap eigenvalues          ... 1.000e-08
Number of eigenvalues below threshold      ... 0
Time for construction of square roots      ...    0.004 sec
Total time needed                          ...    0.009 sec

-------------------
DFT GRID GENERATION
-------------------

General Integration Accuracy     IntAcc      ...  4.340
Radial Grid Type                 RadialGrid  ... Gauss-Chebyshev
Angular Grid (max. acc.)         AngularGrid ... Lebedev-110
Angular grid pruning method      GridPruning ... 3 (G Style)
Weight generation scheme         WeightScheme... Becke
Basis function cutoff            BFCut       ...    1.0000e-11
Integration weight cutoff        WCut        ...    1.0000e-14
Grids for H and He will be reduced by one unit

# of grid points (after initial pruning)     ...  11448 (   0.0 sec)
# of grid points (after weights+screening)   ...  11059 (   0.0 sec)
nearest neighbour list constructed           ...    0.0 sec
Grid point re-assignment to atoms done       ...    0.0 sec
Grid point division into batches done        ...    0.0 sec
Reduced shell lists constructed in    0.2 sec

Total number of grid points                  ...    11059
Total number of batches                      ...      177
Average number of points per batch           ...       62
Average number of grid points per atom       ...     1106
Average number of shells per batch           ...    45.85 (67.42%)
Average number of basis functions per batch  ...   109.05 (68.16%)
Average number of large shells per batch     ...    36.31 (79.21%)
Average number of large basis fcns per batch ...    84.94 (77.89%)
Maximum spatial batch extension              ...  22.93, 19.05, 20.05 au
Average spatial batch extension              ...   4.96,  4.59,  4.38 au

Time for grid setup =    0.184 sec

--------------
[...]
---------------
SCF CONVERGENCE
---------------

  Last Energy change         ...   -8.2377e-10  Tolerance :   1.0000e-08
  Last MAX-Density change    ...    3.6716e-06  Tolerance :   1.0000e-07
  Last RMS-Density change    ...    9.1759e-08  Tolerance :   5.0000e-09
  Last Orbital Gradient      ...    1.0253e-06  Tolerance :   1.0000e-05
  Last Orbital Rotation      ...    1.3848e-06  Tolerance :   1.0000e-05

             **** THE GBW FILE WAS UPDATED (opt.gbw) ****
             **** DENSITY FILE WAS UPDATED (opt.scfp.tmp) ****
             **** ENERGY FILE WAS UPDATED (opt.en.tmp) ****
----------------
ORBITAL ENERGIES
----------------

  NO   OCC          E(Eh)            E(eV) 
   0   2.0000     -18.736117      -509.8357 
   1   2.0000      -9.972039      -271.3530 
   2   2.0000      -9.891200      -269.1532 
   3   2.0000      -9.890407      -269.1317 
   4   2.0000      -0.950648       -25.8684 
   5   2.0000      -0.699301       -19.0289 
   6   2.0000      -0.645572       -17.5669 
   7   2.0000      -0.479550       -13.0492 
   8   2.0000      -0.414504       -11.2792 
   9   2.0000      -0.411433       -11.1957 
  10   2.0000      -0.404509       -11.0072 
  11   2.0000      -0.363707        -9.8970 
  12   2.0000      -0.351181        -9.5561 
  13   2.0000      -0.336669        -9.1612 
  14   2.0000      -0.310078        -8.4377 
  15   2.0000      -0.206685        -5.6242 
  16   0.0000      -0.060696        -1.6516 
  17   0.0000       0.008746         0.2380 
  18   0.0000       0.057143         1.5550 
  19   0.0000       0.075362         2.0507 
  20   0.0000       0.077540         2.1100 
  21   0.0000       0.084321         2.2945 
  22   0.0000       0.100439         2.7331 
  23   0.0000       0.104956         2.8560 
  24   0.0000       0.140402         3.8205 
  25   0.0000       0.153903         4.1879 
  26   0.0000       0.189447         5.1551 
  27   0.0000       0.205063         5.5801 
  28   0.0000       0.209095         5.6898 
  29   0.0000       0.233845         6.3632 
  30   0.0000       0.259616         7.0645 
  31   0.0000       0.279787         7.6134 
  32   0.0000       0.333688         9.0801 
  33   0.0000       0.347592         9.4585 
  34   0.0000       0.358708         9.7609 
  35   0.0000       0.371394        10.1061 
  36   0.0000       0.380332        10.3494 
  37   0.0000       0.389278        10.5928 
  38   0.0000       0.395468        10.7612 
  39   0.0000       0.415920        11.3178 
  40   0.0000       0.422146        11.4872 
  41   0.0000       0.436604        11.8806 
  42   0.0000       0.488731        13.2990 
  43   0.0000       0.506637        13.7863 
  44   0.0000       0.529591        14.4109 
  45   0.0000       0.544653        14.8208 
  46   0.0000       0.567963        15.4551 
  47   0.0000       0.661419        17.9981 
  48   0.0000       0.678186        18.4544 
  49   0.0000       0.747325        20.3357 
  50   0.0000       0.780181        21.2298 
  51   0.0000       0.833408        22.6782 
  52   0.0000       0.852057        23.1856 
  53   0.0000       0.887274        24.1440 
  54   0.0000       0.897502        24.4223 
  55   0.0000       0.926235        25.2041 
  56   0.0000       0.954229        25.9659 
  57   0.0000       0.967636        26.3307 
  58   0.0000       1.041777        28.3482 
  59   0.0000       1.058389        28.8002 
  60   0.0000       1.084706        29.5163 
  61   0.0000       1.171840        31.8874 
  62   0.0000       1.301710        35.4213 
  63   0.0000       1.340695        36.4822 
  64   0.0000       1.374762        37.4092 
  65   0.0000       1.423697        38.7408 
  66   0.0000       1.437131        39.1063 
  67   0.0000       1.439445        39.1693 
  68   0.0000       1.450920        39.4815 
  69   0.0000       1.463831        39.8329 
  70   0.0000       1.492006        40.5995 
  71   0.0000       1.510924        41.1143 
  72   0.0000       1.513275        41.1783 
  73   0.0000       1.546788        42.0903 
  74   0.0000       1.570028        42.7226 
  75   0.0000       1.624331        44.2003 
  76   0.0000       1.763962        47.9998 
  77   0.0000       1.783451        48.5302 
  78   0.0000       1.815000        49.3887 
  79   0.0000       1.854436        50.4618 
  80   0.0000       1.855782        50.4984 
  81   0.0000       1.911035        52.0019 
  82   0.0000       1.962545        53.4036 
  83   0.0000       1.986346        54.0512 
  84   0.0000       2.021908        55.0189 
  85   0.0000       2.060381        56.0658 
  86   0.0000       2.097430        57.0740 
  87   0.0000       2.199764        59.8586 
  88   0.0000       2.219666        60.4002 
  89   0.0000       2.221976        60.4630 
  90   0.0000       2.242960        61.0340 
  91   0.0000       2.264774        61.6276 
  92   0.0000       2.279268        62.0220 
  93   0.0000       2.303490        62.6811 
  94   0.0000       2.332253        63.4638 
  95   0.0000       2.442369        66.4602 
  96   0.0000       2.446941        66.5847 
  97   0.0000       2.463975        67.0482 
  98   0.0000       2.484542        67.6078 
  99   0.0000       2.532018        68.8997 
 100   0.0000       2.631770        71.6141 
 101   0.0000       2.642785        71.9138 
 102   0.0000       2.677768        72.8658 
 103   0.0000       2.722346        74.0788 
 104   0.0000       2.800527        76.2062 
 105   0.0000       2.823545        76.8326 
 106   0.0000       2.835083        77.1465 
 107   0.0000       2.839289        77.2610 
 108   0.0000       2.911265        79.2196 
 109   0.0000       2.981118        81.1203 
 110   0.0000       3.013234        81.9943 
 111   0.0000       3.015924        82.0675 
 112   0.0000       3.047751        82.9335 
 113   0.0000       3.051102        83.0247 
 114   0.0000       3.082011        83.8658 
 115   0.0000       3.095401        84.2301 
 116   0.0000       3.114713        84.7557 
 117   0.0000       3.170493        86.2735 
 118   0.0000       3.176637        86.4407 
 119   0.0000       3.221443        87.6599 
 120   0.0000       3.250866        88.4606 
 121   0.0000       3.307046        89.9893 
 122   0.0000       3.323938        90.4490 
 123   0.0000       3.413330        92.8814 
 124   0.0000       3.446968        93.7968 
 125   0.0000       3.508451        95.4698 
 126   0.0000       3.589557        97.6768 
 127   0.0000       3.616435        98.4082 
 128   0.0000       3.738282       101.7238 
 129   0.0000       3.750736       102.0627 
 130   0.0000       3.809104       103.6510 
 131   0.0000       3.816432       103.8504 
 132   0.0000       3.875732       105.4640 
 133   0.0000       3.890048       105.8536 
 134   0.0000       4.078985       110.9948 
 135   0.0000       4.133571       112.4802 
 136   0.0000       4.221112       114.8623 
 137   0.0000       4.265362       116.0664 
 138   0.0000       4.270745       116.2129 
 139   0.0000       4.308259       117.2337 
 140   0.0000       4.387793       119.3979 
 141   0.0000       4.496149       122.3464 
 142   0.0000       4.645895       126.4212 
 143   0.0000       4.710513       128.1796 
 144   0.0000       5.076580       138.1408 
 145   0.0000       5.084440       138.3547 
 146   0.0000       5.461262       148.6085 
 147   0.0000       5.548304       150.9770 
 148   0.0000       5.976722       162.6349 
 149   0.0000       6.182983       168.2475 
 150   0.0000       6.247935       170.0150 
 151   0.0000       6.360074       173.0664 
 152   0.0000       6.377240       173.5335 
 153   0.0000       6.678444       181.7297 
 154   0.0000       6.848032       186.3444 
 155   0.0000       6.927185       188.4983 
 156   0.0000      21.986375       598.2797 
 157   0.0000      22.026398       599.3688 
 158   0.0000      22.684685       617.2817 
 159   0.0000      43.431248      1181.8243 

                    ********************************
                    * MULLIKEN POPULATION ANALYSIS *
                    ********************************

-----------------------
MULLIKEN ATOMIC CHARGES
-----------------------
   0 O :   -0.246806
   1 C :    0.167836
   2 C :   -0.367839
   3 H :    0.125893
   4 H :    0.144441
   5 H :    0.144438
   6 H :    0.135847
   7 C :   -0.370389
   8 H :    0.130734
   9 H :    0.135847
Sum of atomic charges:   -0.0000000

--------------------------------
MULLIKEN REDUCED ORBITAL CHARGES
--------------------------------
  0 O s       :     3.795676  s :     3.795676
      pz      :     1.299470  p :     4.419713
      px      :     1.783225
      py      :     1.337017
      dz2     :     0.002460  d :     0.029733
      dxz     :     0.000066
      dyz     :     0.010851
      dx2y2   :     0.007677
      dxy     :     0.008680
      f0      :     0.000150  f :     0.001684
      f+1     :     0.000020
      f-1     :     0.000111
      f+2     :     0.000459
      f-2     :     0.000006
      f+3     :     0.000552
      f-3     :     0.000386
  1 C s       :     3.179554  s :     3.179554
      pz      :     0.722169  p :     2.434439
      px      :     0.939235
      py      :     0.773034
      dz2     :     0.007380  d :     0.201473
      dxz     :     0.019530
      dyz     :     0.041595
      dx2y2   :     0.048818
      dxy     :     0.084149
      f0      :     0.001895  f :     0.016699
      f+1     :     0.000581
      f-1     :     0.001189
      f+2     :     0.002444
      f-2     :     0.000940
      f+3     :     0.007049
      f-3     :     0.002601
  2 C s       :     3.247040  s :     3.247040
      pz      :     1.087304  p :     3.079862
      px      :     0.989587
      py      :     1.002971
      dz2     :     0.004560  d :     0.037970
      dxz     :     0.009986
      dyz     :     0.003009
      dx2y2   :     0.014974
      dxy     :     0.005442
      f0      :     0.000213  f :     0.002967
      f+1     :     0.000720
      f-1     :     0.000202
      f+2     :     0.000017
      f-2     :     0.000242
      f+3     :     0.000838
      f-3     :     0.000735
  3 H s       :     0.853099  s :     0.853099
      pz      :     0.004571  p :     0.021008
      px      :     0.004554
      py      :     0.011883
  4 H s       :     0.834483  s :     0.834483
      pz      :     0.008987  p :     0.021077
      px      :     0.007241
      py      :     0.004849
  5 H s       :     0.834486  s :     0.834486
      pz      :     0.008988  p :     0.021077
      px      :     0.007241
      py      :     0.004848
  6 H s       :     0.843113  s :     0.843113
      pz      :     0.008904  p :     0.021040
      px      :     0.004601
      py      :     0.007536
  7 C s       :     3.212524  s :     3.212524
      pz      :     1.047551  p :     3.111203
      px      :     1.018711
      py      :     1.044940
      dz2     :     0.003221  d :     0.043746
      dxz     :     0.004881
      dyz     :     0.010527
      dx2y2   :     0.015044
      dxy     :     0.010073
      f0      :     0.000213  f :     0.002916
      f+1     :    -0.000003
      f-1     :     0.000917
      f+2     :    -0.000025
      f-2     :     0.000289
      f+3     :     0.000786
      f-3     :     0.000739
  8 H s       :     0.847390  s :     0.847390
      pz      :     0.004583  p :     0.021876
      px      :     0.010053
      py      :     0.007240
  9 H s       :     0.843112  s :     0.843112
      pz      :     0.008904  p :     0.021040
      px      :     0.004601
      py      :     0.007536


                     *******************************
                     * LOEWDIN POPULATION ANALYSIS *
                     *******************************

----------------------
LOEWDIN ATOMIC CHARGES
----------------------
   0 O :    0.137070
   1 C :   -0.393297
   2 C :   -0.285048
   3 H :    0.126126
   4 H :    0.143279
   5 H :    0.143280
   6 H :    0.139871
   7 C :   -0.283337
   8 H :    0.132181
   9 H :    0.139875

-------------------------------
LOEWDIN REDUCED ORBITAL CHARGES
-------------------------------
  0 O s       :     3.408892  s :     3.408892
      pz      :     1.237332  p :     4.379848
      px      :     1.647184
      py      :     1.495332
      dz2     :     0.007703  d :     0.068284
      dxz     :     0.000047
      dyz     :     0.012426
      dx2y2   :     0.023941
      dxy     :     0.024167
      f0      :     0.000351  f :     0.005906
      f+1     :     0.000145
      f-1     :     0.000868
      f+2     :     0.000710
      f-2     :     0.000012
      f+3     :     0.002070
      f-3     :     0.001749
  1 C s       :     2.787185  s :     2.787185
      pz      :     0.699101  p :     2.728564
      px      :     1.029602
      py      :     0.999862
      dz2     :     0.047634  d :     0.771713
      dxz     :     0.064003
      dyz     :     0.121934
      dx2y2   :     0.210916
      dxy     :     0.327226
      f0      :     0.006647  f :     0.105834
      f+1     :     0.003621
      f-1     :     0.009668
      f+2     :     0.016452
      f-2     :     0.005568
      f+3     :     0.047480
      f-3     :     0.016399
  2 C s       :     2.847609  s :     2.847609
      pz      :     1.083487  p :     3.198002
      px      :     1.052197
      py      :     1.062317
      dz2     :     0.035798  d :     0.216904
      dxz     :     0.054544
      dyz     :     0.012773
      dx2y2   :     0.071945
      dxy     :     0.041844
      f0      :     0.001309  f :     0.022533
      f+1     :     0.003803
      f-1     :     0.002990
      f+2     :     0.001194
      f-2     :     0.003793
      f+3     :     0.004799
      f-3     :     0.004644
  3 H s       :     0.812375  s :     0.812375
      pz      :     0.013517  p :     0.061499
      px      :     0.012863
      py      :     0.035119
  4 H s       :     0.795011  s :     0.795011
      pz      :     0.027560  p :     0.061709
      px      :     0.019581
      py      :     0.014568
  5 H s       :     0.795010  s :     0.795010
      pz      :     0.027563  p :     0.061710
      px      :     0.019579
      py      :     0.014567
  6 H s       :     0.798886  s :     0.798886
      pz      :     0.027261  p :     0.061243
      px      :     0.012801
      py      :     0.021182
  7 C s       :     2.847176  s :     2.847176
      pz      :     1.064905  p :     3.192318
      px      :     1.055857
      py      :     1.071555
      dz2     :     0.033371  d :     0.221102
      dxz     :     0.016285
      dyz     :     0.056379
      dx2y2   :     0.052788
      dxy     :     0.062279
      f0      :     0.001305  f :     0.022742
      f+1     :     0.002962
      f-1     :     0.003891
      f+2     :     0.003020
      f-2     :     0.001690
      f+3     :     0.004933
      f-3     :     0.004942
  8 H s       :     0.806238  s :     0.806238
      pz      :     0.012700  p :     0.061581
      px      :     0.027267
      py      :     0.021614
  9 H s       :     0.798882  s :     0.798882
      pz      :     0.027262  p :     0.061243
      px      :     0.012801
      py      :     0.021180


                      *****************************
                      * MAYER POPULATION ANALYSIS *
                      *****************************

  NA   - Mulliken gross atomic population
  ZA   - Total nuclear charge
  QA   - Mulliken gross atomic charge
  VA   - Mayer's total valence
  BVA  - Mayer's bonded valence
  FA   - Mayer's free valence

  ATOM       NA         ZA         QA         VA         BVA        FA
  0 O      8.2468     8.0000    -0.2468     2.2108     2.2108    -0.0000
  1 C      5.8322     6.0000     0.1678     4.1268     4.1268     0.0000
  2 C      6.3678     6.0000    -0.3678     3.7333     3.7333    -0.0000
  3 H      0.8741     1.0000     0.1259     0.9672     0.9672    -0.0000
  4 H      0.8556     1.0000     0.1444     0.9837     0.9837    -0.0000
  5 H      0.8556     1.0000     0.1444     0.9837     0.9837    -0.0000
  6 H      0.8642     1.0000     0.1358     0.9694     0.9694    -0.0000
  7 C      6.3704     6.0000    -0.3704     3.7437     3.7437    -0.0000
  8 H      0.8693     1.0000     0.1307     1.0037     1.0037    -0.0000
  9 H      0.8642     1.0000     0.1358     0.9694     0.9694    -0.0000

  Mayer bond orders larger than 0.1
B(  0-O ,  1-C ) :   2.1683 B(  1-C ,  2-C ) :   0.9383 B(  1-C ,  7-C ) :   0.9839 
B(  2-C ,  3-H ) :   0.9523 B(  2-C ,  4-H ) :   0.9465 B(  2-C ,  5-H ) :   0.9465 
B(  6-H ,  7-C ) :   0.9348 B(  7-C ,  8-H ) :   0.9627 B(  7-C ,  9-H ) :   0.9348 


-------
TIMINGS
-------

Total SCF time: 0 days 0 hours 0 min 5 sec 

Total time                  ....       5.104 sec
Sum of individual times     ....       5.007 sec  ( 98.1%)

Fock matrix formation       ....       3.882 sec  ( 76.0%)
  Split-RI-J                ....       1.608 sec  ( 41.4% of F)
  XC integration            ....       2.195 sec  ( 56.5% of F)
    Basis function eval.    ....       0.911 sec  ( 41.5% of XC)
    Density eval.           ....       0.335 sec  ( 15.3% of XC)
    XC-Functional eval.     ....       0.117 sec  (  5.3% of XC)
    XC-Potential eval.      ....       0.730 sec  ( 33.2% of XC)
Diagonalization             ....       0.008 sec  (  0.1%)
Density matrix formation    ....       0.001 sec  (  0.0%)
Population analysis         ....       0.018 sec  (  0.4%)
Initial guess               ....       0.004 sec  (  0.1%)
Orbital Transformation      ....       0.000 sec  (  0.0%)
Orbital Orthonormalization  ....       0.002 sec  (  0.0%)
DIIS solution               ....       0.001 sec  (  0.0%)
SOSCF solution              ....       0.044 sec  (  0.9%)
Grid generation             ....       1.050 sec  ( 20.6%)

-------------------------   --------------------
FINAL SINGLE POINT ENERGY      -192.987225779452
-------------------------   --------------------

                                *** OPTIMIZATION RUN DONE ***

                            ***************************************
                            *     ORCA property calculations      *
                            ***************************************

                                    ---------------------
                                    Active property flags
                                    ---------------------
   (+) Dipole Moment


------------------------------------------------------------------------------
                       ORCA ELECTRIC PROPERTIES CALCULATION
------------------------------------------------------------------------------

Dipole Moment Calculation                       ... on
Quadrupole Moment Calculation                   ... off
Polarizability Calculation                      ... off
GBWName                                         ... opt.gbw
Electron density file                           ... opt.scfp.tmp
The origin for moment calculation is the CENTER OF MASS  = ( 0.563543,  0.510819  0.000061)

-------------
DIPOLE MOMENT
-------------
                                X             Y             Z
Electronic contribution:      0.11168       3.89361       0.00022
Nuclear contribution   :     -0.14142      -5.00106      -0.00030
                        -----------------------------------------
Total Dipole Moment    :     -0.02974      -1.10745      -0.00008
                        -----------------------------------------
Magnitude (a.u.)       :      1.10785
Magnitude (Debye)      :      2.81592


Timings for individual modules:

Sum of individual times         ...      492.317 sec (=   8.205 min)
GTO integral calculation        ...       15.446 sec (=   0.257 min)   3.1 %
SCF iterations                  ...      304.605 sec (=   5.077 min)  61.9 %
SCF Gradient evaluation         ...      161.630 sec (=   2.694 min)  32.8 %
Geometry relaxation             ...       10.636 sec (=   0.177 min)   2.2 %
                             ****ORCA TERMINATED NORMALLY****
TOTAL RUN TIME: 0 days 0 hours 8 minutes 37 seconds 322 msec
