
                                 *****************
                                 * O   R   C   A *
                                 *****************

           --- An Ab Initio, DFT and Semiempirical electronic structure package ---

                  #######################################################
                  #                        -***-                        #
                  #  Department of molecular theory and spectroscopy    #
                  #              Directorship: Frank Neese              #
                  # Max Planck Institute for Chemical Energy Conversion #
                  #                  D-45470 Muelheim/Ruhr              #
                  #                       Germany                       #
                  #                                                     #
                  #                  All rights reserved                #
                  #                        -***-                        #
                  #######################################################


                         Program Version 4.0.1.2 - RELEASE -


 With contributions from (in alphabetic order):
   Daniel Aravena         : Magnetic Properties
   Michael Atanasov       : Ab Initio Ligand Field Theory
   Ute Becker             : Parallelization
   Martin Brehm           : Molecular dynamics
   Dmytro Bykov           : SCF Hessian
   Vijay G. Chilkuri      : MRCI spin determinant printing
   Dipayan Datta          : RHF DLPNO-CCSD density
   Achintya Kumar Dutta   : EOM-CC, STEOM-CC
   Dmitry Ganyushin       : Spin-Orbit,Spin-Spin,Magnetic field MRCI
   Yang Guo               : DLPNO-NEVPT2, CIM, IAO-localization
   Andreas Hansen         : Spin unrestricted coupled pair/coupled cluster methods
   Lee Huntington         : MR-EOM, pCC
   Robert Izsak           : Overlap fitted RIJCOSX, COSX-SCS-MP3, EOM
   Christian Kollmar      : KDIIS, OOCD, Brueckner-CCSD(T), CCSD density
   Simone Kossmann        : Meta GGA functionals, TD-DFT gradient, OOMP2, MP2 Hessian
   Martin Krupicka        : AUTO-CI
   Dagmar Lenk            : GEPOL surface
   Dimitrios Liakos       : Extrapolation schemes; parallel MDCI
   Dimitrios Manganas     : ROCIS; embedding schemes
   Dimitrios Pantazis     : SARC Basis sets
   Taras Petrenko         : DFT Hessian,TD-DFT gradient, ASA, ECA, R-Raman, ABS, FL, XAS/XES, NRVS
   Peter Pinski           : DLPNO-MP2
   Christoph Reimann      : Effective Core Potentials
   Marius Retegan         : Local ZFS, SOC
   Christoph Riplinger    : Optimizer, TS searches, QM/MM, DLPNO-CCSD(T), (RO)-DLPNO pert. Triples
   Tobias Risthaus        : Range-separated hybrids, TD-DFT gradient, RPA, STAB
   Michael Roemelt        : Restricted open shell CIS
   Masaaki Saitow         : Open-shell DLPNO
   Barbara Sandhoefer     : DKH picture change effects
   Kantharuban Sivalingam : CASSCF convergence, NEVPT2, FIC-MRCI
   Georgi Stoychev        : AutoAux
   Boris Wezisla          : Elementary symmetry handling
   Frank Wennmohs         : Technical directorship


 We gratefully acknowledge several colleagues who have allowed us to
 interface, adapt or use parts of their codes:
   Stefan Grimme, W. Hujo, H. Kruse,             : VdW corrections, initial TS optimization,
                  C. Bannwarth                     DFT functionals, gCP, sTDA/sTD-DF
   Ed Valeev                                     : LibInt (2-el integral package), F12 methods
   Garnet Chan, S. Sharma, J. Yang, R. Olivares  : DMRG
   Ulf Ekstrom                                   : XCFun DFT Library
   Mihaly Kallay                                 : mrcc  (arbitrary order and MRCC methods)
   Andreas Klamt, Michael Diedenhofen            : otool_cosmo (COSMO solvation model)
   Jiri Pittner, Ondrej Demel                    : Mk-CCSD
   Frank Weinhold                                : gennbo (NPA and NBO analysis)
   Christopher J. Cramer and Donald G. Truhlar   : smd solvation model


 Your calculation uses the libint2 library for the computation of 2-el integrals
 For citations please refer to: http://libint.valeyev.net

 This ORCA versions uses:
   CBLAS   interface :  Fast vector & matrix operations
   LAPACKE interface :  Fast linear algebra routines
   SCALAPACK package :  Parallel linear algebra routines




*****************************************
The coordinations will be read from file: opt.xyz
*****************************************


Your calculation utilizes the basis: def2-TZVP
   F. Weigend and R. Ahlrichs, Phys. Chem. Chem. Phys. 7, 3297 (2005).

Your calculation utilizes the auxiliary basis: def2/J
   F. Weigend, Phys. Chem. Chem. Phys. 8, 1057 (2006).

cite the ECPs for W  [Def2-ECP] as follows:
Ce-Yb(ecp-28): M. Dolg, H. Stoll, H.Preuss, J. Chem. Phys., 1989, 90, 1730-1734.
Y-Cd(ecp-28), Hf-Hg(ecp-46): D. Andrae,U. Haeussermann, M. Dolg, H. Stoll, H. Preuss, Theor. Chim. Acta, 1990, 77, 123-141.
In-Sb(ecp-28), Tl-Bi(ecp-46): B. Metz, H. Stoll, M. Dolg, J. Chem. Phys., 2000, 113, 2563-2569.
Te-Xe(ecp-28), Po-Rn(ecp-46): K. A. Peterson, D. Figgen, E. Goll, H. Stoll, M. Dolg, J. Chem. Phys., 2003, 119, 11113-11123.
Rb(ecp-28), Cs(ecp-46): T. Leininger, A. Nicklass, W. Kuechle, H. Stoll, M. Dolg, A. Bergner, Chem. Phys. Lett., 1996, 255, 274-280.
Sr(ecp-28), Ba(ecp-46): M. Kaupp, P. V. Schleyer, H. Stoll and H. Preuss, J. Chem. Phys., 1991, 94, 1360-1366.
La(ecp-46): M. Dolg, H. Stoll, A. Savin, H. Preuss, Theor. Chim. Acta, 1989, 75, 173-194.
Lu(ecp-28): X. Cao, M. Dolg, J. Chem. Phys., 2001, 115, 7348-7355.

ECP parameters for W  [Def2-ECP] have been obtained from:
TURBOMOLE (7.0.2)

================================================================================
                                        WARNINGS
                       Please study these warnings very carefully!
================================================================================

Warning: TCutStore was < 0. Adjusted to Thresh (uncritical)

INFO   : the flag for use of LIBINT has been found!

================================================================================
                                       INPUT FILE
================================================================================
NAME = freq.inp
|  1> # avogadro generated ORCA input file 
|  2> # Basic Mode
|  3> # 
|  4> ! PBE FREQ def2-TZVP
|  5> 
|  6> * xyzfile 0 1 opt.xyz
|  7> 
|  8> 
|  9>                          ****END OF INPUT****
================================================================================

                       ****************************
                       * Single Point Calculation *
                       ****************************

---------------------------------
CARTESIAN COORDINATES (ANGSTROEM)
---------------------------------
  W     -0.644700    0.667212   -0.094542
  O     -0.761483   -1.069937   -0.776112
  H     -0.761901   -1.516986   -1.632812
  O     -2.503989    0.899083    0.154255
  H     -3.008719    0.688203    0.954625
  O     -0.417528    2.515985   -0.376218
  H      0.191474    2.887038   -1.034307
  O      1.064741    0.391901    0.641826
  H      1.329177    0.663092    1.531665

----------------------------
CARTESIAN COORDINATES (A.U.)
----------------------------
  NO LB      ZA    FRAG     MASS         X           Y           Z
   0 W    14.0000*   0   183.850   -1.218307    1.260848   -0.178659
   1 O     8.0000    0    15.999   -1.438995   -2.021888   -1.466639
   2 H     1.0000    0     1.008   -1.439785   -2.866688   -3.085568
   3 O     8.0000    0    15.999   -4.731854    1.699020    0.291500
   4 H     1.0000    0     1.008   -5.685655    1.300515    1.803981
   5 O     8.0000    0    15.999   -0.789014    4.754522   -0.710949
   6 H     1.0000    0     1.008    0.361834    5.455712   -1.954557
   7 O     8.0000    0    15.999    2.012069    0.740585    1.212875
   8 H     1.0000    0     1.008    2.511780    1.253062    2.894427
* core charge reduced due to ECP

--------------------------------
INTERNAL COORDINATES (ANGSTROEM)
--------------------------------
 W      0   0   0     0.000000000000     0.00000000     0.00000000
 O      1   0   0     1.869722559242     0.00000000     0.00000000
 H      2   1   0     0.966327154706   138.85321002     0.00000000
 O      1   2   3     1.890137593015    95.76899042    98.55006670
 H      4   1   2     0.969440481518   126.45070303    90.47343668
 O      1   2   3     1.883854576067   149.86212178   356.43486011
 H      6   1   2     0.970384851716   123.52759040   322.13460207
 O      1   2   3     1.881548564176    93.63864581   249.32231933
 H      8   1   2     0.967100849600   124.57510342   225.39713596

---------------------------
INTERNAL COORDINATES (A.U.)
---------------------------
 W      0   0   0     0.000000000000     0.00000000     0.00000000
 O      1   0   0     3.533263583382     0.00000000     0.00000000
 H      2   1   0     1.826093678166   138.85321002     0.00000000
 O      1   2   3     3.571842406228    95.76899042    98.55006670
 H      4   1   2     1.831977013206   126.45070303    90.47343668
 O      1   2   3     3.559969224900   149.86212178   356.43486011
 H      6   1   2     1.833761614249   123.52759040   322.13460207
 O      1   2   3     3.555611493965    93.63864581   249.32231933
 H      8   1   2     1.827555749626   124.57510342   225.39713596

---------------------
BASIS SET INFORMATION
---------------------
There are 3 groups of distinct atoms

 Group   1 Type W   : 8s7p6d1f contracted to 6s4p3d1f pattern {311111/4111/411/1}
 Group   2 Type O   : 11s6p2d1f contracted to 5s3p2d1f pattern {62111/411/11/1}
 Group   3 Type H   : 5s1p contracted to 3s1p pattern {311/1}

Atom   0W    basis set group =>   1
Atom   1O    basis set group =>   2
Atom   2H    basis set group =>   3
Atom   3O    basis set group =>   2
Atom   4H    basis set group =>   3
Atom   5O    basis set group =>   2
Atom   6H    basis set group =>   3
Atom   7O    basis set group =>   2
Atom   8H    basis set group =>   3
-------------------------------
AUXILIARY BASIS SET INFORMATION
-------------------------------
There are 3 groups of distinct atoms

 Group   1 Type W   : 11s5p5d3f3g contracted to 8s5p5d2f3g pattern {41111111/11111/11111/21/111}
 Group   2 Type O   : 12s5p4d2f1g contracted to 6s4p3d1f1g pattern {711111/2111/211/2/1}
 Group   3 Type H   : 5s2p1d contracted to 3s1p1d pattern {311/2/1}

Atom   0W    basis set group =>   1
Atom   1O    basis set group =>   2
Atom   2H    basis set group =>   3
Atom   3O    basis set group =>   2
Atom   4H    basis set group =>   3
Atom   5O    basis set group =>   2
Atom   6H    basis set group =>   3
Atom   7O    basis set group =>   2
Atom   8H    basis set group =>   3
-------------------------
ECP PARAMETER INFORMATION
-------------------------

 Group 1, Type W  ECP Def2-ECP (replacing 60 core electrons, lmax=3)

Atom   0W    ECP group =>   1

------------------------------------------------------------------------------
                           ORCA GTO INTEGRAL CALCULATION
                           -- RI-GTO INTEGRALS CHOSEN --
------------------------------------------------------------------------------

                         BASIS SET STATISTICS AND STARTUP INFO

Gaussian basis set:
 # of primitive gaussian shells          ...  126
 # of primitive gaussian functions       ...  282
 # of contracted shells                  ...   74
 # of contracted basis functions         ...  188
 Highest angular momentum                ...    3
 Maximum contraction depth               ...    6
Auxiliary gaussian basis set:
 # of primitive gaussian shells          ...  155
 # of primitive gaussian functions       ...  443
 # of contracted shells                  ...  103
 # of contracted aux-basis functions     ...  329
 Highest angular momentum                ...    4
 Maximum contraction depth               ...    7
Ratio of auxiliary to basis functions    ...  1.75
Integral package used                  ... LIBINT
 One Electron integrals                  
   ECP integrals                         ... done
 Ordering auxiliary basis shells         ... done
 Integral threshhold             Thresh  ...  1.000e-10
 Primitive cut-off               TCut    ...  1.000e-11
 Pre-screening matrix                    ... done
 Shell pair data                         ... 
 Ordering of the shell pairs             ... done (   0.000 sec) 2544 of 2775 pairs
 Determination of significant pairs      ... done (   0.000 sec)
 Creation of shell pair data             ... done (   0.001 sec)
 Storage of shell pair data              ... done (   0.006 sec)
 Shell pair data done in (   0.008 sec)
 Computing two index integrals           ... done
 Cholesky decomposition of the V-matrix  ... done


Timings:
 Total evaluation time                   ...   0.665 sec (  0.011 min)
 One electron matrix time                ...   0.439 sec (  0.007 min) = 66.1%
 Schwartz matrix evaluation time         ...   0.173 sec (  0.003 min) = 26.1%
 Two index repulsion integral time       ...   0.010 sec (  0.000 min) =  1.5%
 Cholesky decomposition of V             ...   0.010 sec (  0.000 min) =  1.4%
 Three index repulsion integral time     ...   0.000 sec (  0.000 min) =  0.0%

-------------------------------------------------------------------------------
                                 ORCA SCF
-------------------------------------------------------------------------------

------------
SCF SETTINGS
------------
Hamiltonian:
 Density Functional     Method          .... DFT(GTOs)
 Exchange Functional    Exchange        .... PBE
   PBE kappa parameter   XKappa         ....  0.804000
   PBE mue parameter    XMuePBE         ....  0.219520
 Correlation Functional Correlation     .... PBE
   PBE beta parameter  CBetaPBE         ....  0.066725
 LDA part of GGA corr.  LDAOpt          .... PW91-LDA
 Gradients option       PostSCFGGA      .... off
   NL short-range parameter             ....  6.400000
 RI-approximation to the Coulomb term is turned on
   Number of auxiliary basis functions  .... 329


General Settings:
 Integral files         IntName         .... freq
 Hartree-Fock type      HFTyp           .... RHF
 Total Charge           Charge          ....    0
 Multiplicity           Mult            ....    1
 Number of Electrons    NEL             ....   50
 Basis Dimension        Dim             ....  188
 Nuclear Repulsion      ENuc            ....    237.7252205600 Eh

Convergence Acceleration:
 DIIS                   CNVDIIS         .... on
   Start iteration      DIISMaxIt       ....    12
   Startup error        DIISStart       ....  0.200000
   # of expansion vecs  DIISMaxEq       ....     5
   Bias factor          DIISBfac        ....   1.050
   Max. coefficient     DIISMaxC        ....  10.000
 Newton-Raphson         CNVNR           .... off
 SOSCF                  CNVSOSCF        .... off
 Level Shifting         CNVShift        .... on
   Level shift para.    LevelShift      ....    0.2500
   Turn off err/grad.   ShiftErr        ....    0.0010
 Zerner damping         CNVZerner       .... off
 Static damping         CNVDamp         .... on
   Fraction old density DampFac         ....    0.7000
   Max. Damping (<1)    DampMax         ....    0.9800
   Min. Damping (>=0)   DampMin         ....    0.0000
   Turn off err/grad.   DampErr         ....    0.1000
 Fernandez-Rico         CNVRico         .... off

SCF Procedure:
 Maximum # iterations   MaxIter         ....   125
 SCF integral mode      SCFMode         .... Direct
   Integral package                     .... LIBINT
 Reset frequeny         DirectResetFreq ....    20
 Integral Threshold     Thresh          ....  1.000e-10 Eh
 Primitive CutOff       TCut            ....  1.000e-11 Eh

Convergence Tolerance:
 Convergence Check Mode ConvCheckMode   .... Total+1el-Energy
 Convergence forced     ConvForced      .... 0
 Energy Change          TolE            ....  1.000e-06 Eh
 1-El. energy change                    ....  1.000e-03 Eh
 DIIS Error             TolErr          ....  1.000e-06


Diagonalization of the overlap matrix:
Smallest eigenvalue                        ... 2.374e-03
Time for diagonalization                   ...    0.007 sec
Threshold for overlap eigenvalues          ... 1.000e-08
Number of eigenvalues below threshold      ... 0
Time for construction of square roots      ...    0.029 sec
Total time needed                          ...    0.037 sec

-------------------
DFT GRID GENERATION
-------------------

General Integration Accuracy     IntAcc      ...  4.340
Radial Grid Type                 RadialGrid  ... Gauss-Chebyshev
Angular Grid (max. acc.)         AngularGrid ... Lebedev-110
Angular grid pruning method      GridPruning ... 3 (G Style)
Weight generation scheme         WeightScheme... Becke
Basis function cutoff            BFCut       ...    1.0000e-10
Integration weight cutoff        WCut        ...    1.0000e-14
Grids for H and He will be reduced by one unit

# of grid points (after initial pruning)     ...  13570 (   0.0 sec)
# of grid points (after weights+screening)   ...  13120 (   0.0 sec)
nearest neighbour list constructed           ...    0.0 sec
Grid point re-assignment to atoms done       ...    0.0 sec
Grid point division into batches done        ...    0.0 sec
Reduced shell lists constructed in    0.2 sec

Total number of grid points                  ...    13120
Total number of batches                      ...      210
Average number of points per batch           ...       62
Average number of grid points per atom       ...     1458
Average number of shells per batch           ...    47.21 (63.80%)
Average number of basis functions per batch  ...   122.19 (65.00%)
Average number of large shells per batch     ...    37.06 (78.51%)
Average number of large basis fcns per batch ...    95.91 (78.49%)
Maximum spatial batch extension              ...  40.43, 40.43, 27.49 au
Average spatial batch extension              ...   4.69,  4.67,  4.40 au

Time for grid setup =    0.346 sec

------------------------------
INITIAL GUESS: MODEL POTENTIAL
------------------------------
Loading Hartree-Fock densities                     ... done
  calling orca freq_atom74.inp > freq_atom74.out in order to generate an atomic fitting density for atom 0 (W  with ECP) on-the-fly... 
    atom 0 (W ), assumed electronic state with S=5: 1s2 2s2 2p6 3s2 3p6 4s2 3d10 4p6 5s2 4d10 5p6 6s2 4f14 5d4           ... done
Calculating cut-offs                               ... done
Setting up the integral package                    ... done
Initializing the effective Hamiltonian             ... done
Starting the Coulomb interaction                   ... done (   0.1 sec)
Reading the grid                                   ... done
Mapping shells                                     ... done
Starting the XC term evaluation                    ... done (   0.3 sec)
  promolecular density results
     # of electrons  =    110.001402740
     EX              =   -358.632287546
     EC              =     -5.643542910
     EX+EC           =   -364.275830456
Transforming the Hamiltonian                       ... done (   0.0 sec)
Diagonalizing the Hamiltonian                      ... done (   0.0 sec)
Back transforming the eigenvectors                 ... done (   0.0 sec)
Now organizing SCF variables                       ... done
                      ------------------
                      INITIAL GUESS DONE (   2.2 sec)
                      ------------------
--------------
SCF ITERATIONS
--------------
ITER       Energy         Delta-E        Max-DP      RMS-DP      [F,P]     Damp
               ***  Starting incremental Fock matrix formation  ***
  0   -369.5715447426   0.000000000000 0.61054236  0.00624679  0.4000531 0.7000
  1   -370.0286916996  -0.457146957009 0.41598159  0.00393555  0.2588119 0.7000
                               ***Turning on DIIS***
  2   -370.1274847766  -0.098793077044 0.10125121  0.00146146  0.1672689 0.7000
  3   -370.1930583476  -0.065573570974 0.14252368  0.00130241  0.1134118 0.7000
  4   -370.2560337974  -0.062975449765 0.48876126  0.00390714  0.0804769 0.0000
  5   -370.3970626369  -0.141028839477 0.05192088  0.00066304  0.0191015 0.0000
  6   -370.4005616709  -0.003499034003 0.01275978  0.00037716  0.0105719 0.0000
  7   -370.4017055558  -0.001143884963 0.00955500  0.00021060  0.0032645 0.0000
  8   -370.4019432152  -0.000237659365 0.00689498  0.00013236  0.0020119 0.0000
  9   -370.4020461207  -0.000102905517 0.00492361  0.00008780  0.0015228 0.0000
 10   -370.4020870747  -0.000040953951 0.00251651  0.00005665  0.0016399 0.0000
 11   -370.4021070718  -0.000019997119 0.00636850  0.00012360  0.0006898 0.0000
 12   -370.4021211450  -0.000014073219 0.00175659  0.00001911  0.0005694 0.0000
 13   -370.4021226769  -0.000001531892 0.00066124  0.00000745  0.0002082 0.0000
 14   -370.4021228939  -0.000000216969 0.00008301  0.00000275  0.0001721 0.0000
 15   -370.4021229057  -0.000000011804 0.00013173  0.00000214  0.0001683 0.0000
                 **** Energy Check signals convergence ****

               *****************************************************
               *                     SUCCESS                       *
               *           SCF CONVERGED AFTER  16 CYCLES          *
               *****************************************************

Setting up the final grid:

General Integration Accuracy     IntAcc      ...  4.670
Radial Grid Type                 RadialGrid  ... Gauss-Chebyshev
Angular Grid (max. acc.)         AngularGrid ... Lebedev-302
Angular grid pruning method      GridPruning ... 3 (G Style)
Weight generation scheme         WeightScheme... Becke
Basis function cutoff            BFCut       ...    1.0000e-10
Integration weight cutoff        WCut        ...    1.0000e-14
Grids for H and He will be reduced by one unit

# of grid points (after initial pruning)     ...  50076 (   0.0 sec)
# of grid points (after weights+screening)   ...  48154 (   0.0 sec)
nearest neighbour list constructed           ...    0.0 sec
Grid point re-assignment to atoms done       ...    0.0 sec
Grid point division into batches done        ...    0.2 sec
Reduced shell lists constructed in    0.9 sec

Total number of grid points                  ...    48154
Total number of batches                      ...      756
Average number of points per batch           ...       63
Average number of grid points per atom       ...     5350
Average number of shells per batch           ...    42.56 (57.51%)
Average number of basis functions per batch  ...   109.17 (58.07%)
Average number of large shells per batch     ...    32.74 (76.94%)
Average number of large basis fcns per batch ...    84.01 (76.96%)
Maximum spatial batch extension              ...  31.96, 31.96, 29.24 au
Average spatial batch extension              ...   3.07,  3.08,  3.04 au

Final grid set up in    1.0 sec
Final integration                            ... done (   1.0 sec)
Change in XC energy                          ...     0.000272824
Integrated number of electrons               ...    50.000048385
Previous integrated no of electrons          ...    50.003578121

----------------
TOTAL SCF ENERGY
----------------

Total Energy       :         -370.40185017 Eh          -10079.14676 eV

Components:
Nuclear Repulsion  :          237.72522056 Eh            6468.83212 eV
Electronic Energy  :         -608.12707073 Eh          -16547.97888 eV
One Electron Energy:        -1004.18594548 Eh          -27325.28877 eV
Two Electron Energy:          396.05887475 Eh           10777.30989 eV

Virial components:
Potential Energy   :         -695.37615786 Eh          -18922.14724 eV
Kinetic Energy     :          324.97430769 Eh            8843.00048 eV
Virial Ratio       :            2.13978810


DFT components:
N(Alpha)           :       25.000024192468 electrons
N(Beta)            :       25.000024192468 electrons
N(Total)           :       50.000048384935 electrons
E(X)               :      -41.381390528503 Eh       
E(C)               :       -1.761135328854 Eh       
E(XC)              :      -43.142525857357 Eh       

---------------
SCF CONVERGENCE
---------------

  Last Energy change         ...   -8.8124e-08  Tolerance :   1.0000e-06
  Last MAX-Density change    ...    2.5023e-05  Tolerance :   1.0000e-05
  Last RMS-Density change    ...    6.5271e-07  Tolerance :   1.0000e-06
  Last DIIS Error            ...    7.2007e-05  Tolerance :   1.0000e-06

             **** THE GBW FILE WAS UPDATED (freq.gbw) ****
             **** DENSITY FILE WAS UPDATED (freq.scfp.tmp) ****
             **** ENERGY FILE WAS UPDATED (freq.en.tmp) ****
----------------
ORBITAL ENERGIES
----------------

  NO   OCC          E(Eh)            E(eV) 
   0   2.0000     -18.765979      -510.6482 
   1   2.0000     -18.765092      -510.6241 
   2   2.0000     -18.762595      -510.5562 
   3   2.0000     -18.760890      -510.5098 
   4   2.0000      -2.877311       -78.2956 
   5   2.0000      -1.581036       -43.0222 
   6   2.0000      -1.578390       -42.9502 
   7   2.0000      -1.536945       -41.8224 
   8   2.0000      -0.912244       -24.8234 
   9   2.0000      -0.904911       -24.6239 
  10   2.0000      -0.889604       -24.2074 
  11   2.0000      -0.888489       -24.1770 
  12   2.0000      -0.497348       -13.5335 
  13   2.0000      -0.488624       -13.2961 
  14   2.0000      -0.434597       -11.8260 
  15   2.0000      -0.426347       -11.6015 
  16   2.0000      -0.360369        -9.8061 
  17   2.0000      -0.334614        -9.1053 
  18   2.0000      -0.332078        -9.0363 
  19   2.0000      -0.312595        -8.5062 
  20   2.0000      -0.305776        -8.3206 
  21   2.0000      -0.290553        -7.9063 
  22   2.0000      -0.280758        -7.6398 
  23   2.0000      -0.264711        -7.2031 
  24   2.0000      -0.139097        -3.7850 
  25   0.0000      -0.072646        -1.9768 
  26   0.0000      -0.067626        -1.8402 
  27   0.0000      -0.061888        -1.6841 
  28   0.0000      -0.016027        -0.4361 
  29   0.0000       0.002322         0.0632 
  30   0.0000       0.012110         0.3295 
  31   0.0000       0.023895         0.6502 
  32   0.0000       0.029967         0.8155 
  33   0.0000       0.119435         3.2500 
  34   0.0000       0.125545         3.4162 
  35   0.0000       0.141539         3.8515 
  36   0.0000       0.158573         4.3150 
  37   0.0000       0.197046         5.3619 
  38   0.0000       0.241267         6.5652 
  39   0.0000       0.247429         6.7329 
  40   0.0000       0.258383         7.0309 
  41   0.0000       0.260524         7.0892 
  42   0.0000       0.264126         7.1872 
  43   0.0000       0.362113         9.8536 
  44   0.0000       0.373485        10.1631 
  45   0.0000       0.378661        10.3039 
  46   0.0000       0.418242        11.3810 
  47   0.0000       0.447462        12.1761 
  48   0.0000       0.449658        12.2358 
  49   0.0000       0.475155        12.9296 
  50   0.0000       0.490904        13.3582 
  51   0.0000       0.503384        13.6978 
  52   0.0000       0.510686        13.8965 
  53   0.0000       0.525874        14.3098 
  54   0.0000       0.536079        14.5874 
  55   0.0000       0.540590        14.7102 
  56   0.0000       0.549115        14.9422 
  57   0.0000       0.619553        16.8589 
  58   0.0000       0.633926        17.2500 
  59   0.0000       0.660061        17.9612 
  60   0.0000       0.673180        18.3182 
  61   0.0000       0.699345        19.0301 
  62   0.0000       0.761711        20.7272 
  63   0.0000       0.851706        23.1761 
  64   0.0000       0.864820        23.5329 
  65   0.0000       0.875614        23.8267 
  66   0.0000       0.886578        24.1250 
  67   0.0000       0.945934        25.7402 
  68   0.0000       0.955343        25.9962 
  69   0.0000       0.963196        26.2099 
  70   0.0000       1.004097        27.3229 
  71   0.0000       1.026886        27.9430 
  72   0.0000       1.049945        28.5705 
  73   0.0000       1.067473        29.0474 
  74   0.0000       1.142536        31.0900 
  75   0.0000       1.203902        32.7598 
  76   0.0000       1.211389        32.9636 
  77   0.0000       1.252379        34.0790 
  78   0.0000       1.270919        34.5835 
  79   0.0000       1.279521        34.8175 
  80   0.0000       1.300102        35.3776 
  81   0.0000       1.405406        38.2430 
  82   0.0000       1.412293        38.4305 
  83   0.0000       1.448353        39.4117 
  84   0.0000       1.452700        39.5300 
  85   0.0000       1.490094        40.5475 
  86   0.0000       1.548778        42.1444 
  87   0.0000       1.620276        44.0899 
  88   0.0000       1.626507        44.2595 
  89   0.0000       1.630625        44.3716 
  90   0.0000       1.675496        45.5926 
  91   0.0000       1.678862        45.6841 
  92   0.0000       1.687871        45.9293 
  93   0.0000       1.717571        46.7375 
  94   0.0000       1.824200        49.6390 
  95   0.0000       1.829555        49.7847 
  96   0.0000       1.854556        50.4650 
  97   0.0000       1.878480        51.1160 
  98   0.0000       1.908608        51.9359 
  99   0.0000       1.987455        54.0814 
 100   0.0000       2.033677        55.3392 
 101   0.0000       2.106575        57.3228 
 102   0.0000       2.129184        57.9380 
 103   0.0000       2.150525        58.5188 
 104   0.0000       2.158945        58.7479 
 105   0.0000       2.187431        59.5230 
 106   0.0000       2.229216        60.6601 
 107   0.0000       2.250605        61.2421 
 108   0.0000       2.287156        62.2367 
 109   0.0000       2.368366        64.4465 
 110   0.0000       2.400534        65.3219 
 111   0.0000       2.525571        68.7243 
 112   0.0000       2.547592        69.3235 
 113   0.0000       2.568438        69.8907 
 114   0.0000       2.582840        70.2826 
 115   0.0000       2.594704        70.6055 
 116   0.0000       2.612721        71.0958 
 117   0.0000       2.624315        71.4112 
 118   0.0000       2.694951        73.3333 
 119   0.0000       2.755081        74.9696 
 120   0.0000       2.763303        75.1933 
 121   0.0000       2.846486        77.4568 
 122   0.0000       2.863697        77.9252 
 123   0.0000       3.101096        84.3851 
 124   0.0000       3.311359        90.1066 
 125   0.0000       3.335150        90.7541 
 126   0.0000       3.510711        95.5313 
 127   0.0000       3.618894        98.4751 
 128   0.0000       3.644071        99.1602 
 129   0.0000       3.677914       100.0811 
 130   0.0000       3.736629       101.6788 
 131   0.0000       4.965377       135.1148 
 132   0.0000       4.974843       135.3724 
 133   0.0000       4.979242       135.4921 
 134   0.0000       4.986457       135.6884 
 135   0.0000       4.990975       135.8113 
 136   0.0000       4.993842       135.8894 
 137   0.0000       4.996969       135.9744 
 138   0.0000       5.000591       136.0730 
 139   0.0000       5.006545       136.2350 
 140   0.0000       5.010728       136.3488 
 141   0.0000       5.029823       136.8684 
 142   0.0000       5.036283       137.0442 
 143   0.0000       5.060692       137.7084 
 144   0.0000       5.086099       138.3998 
 145   0.0000       5.110239       139.0567 
 146   0.0000       5.126801       139.5074 
 147   0.0000       5.256908       143.0477 
 148   0.0000       5.262481       143.1994 
 149   0.0000       5.277448       143.6067 
 150   0.0000       5.285835       143.8349 
 151   0.0000       5.298149       144.1700 
 152   0.0000       5.323120       144.8495 
 153   0.0000       5.396870       146.8563 
 154   0.0000       5.428609       147.7200 
 155   0.0000       6.002622       163.3396 
 156   0.0000       6.023076       163.8962 
 157   0.0000       6.023941       163.9198 
 158   0.0000       6.074868       165.3056 
 159   0.0000       6.121093       166.5634 
 160   0.0000       6.139664       167.0687 
 161   0.0000       6.155670       167.5043 
 162   0.0000       6.165935       167.7836 
 163   0.0000       6.170186       167.8993 
 164   0.0000       6.209284       168.9632 
 165   0.0000       6.219645       169.2451 
 166   0.0000       6.242470       169.8662 
 167   0.0000       6.277525       170.8201 
 168   0.0000       6.331161       172.2796 
 169   0.0000       6.360406       173.0755 
 170   0.0000       6.491617       176.6459 
 171   0.0000       6.575134       178.9185 
 172   0.0000       6.609781       179.8613 
 173   0.0000       6.621090       180.1690 
 174   0.0000       6.641749       180.7312 
 175   0.0000       6.811795       185.3584 
 176   0.0000       6.845927       186.2872 
 177   0.0000       6.881636       187.2588 
 178   0.0000       6.922360       188.3670 
 179   0.0000      39.262233      1068.3797 
 180   0.0000      42.903636      1167.4673 
 181   0.0000      42.909182      1167.6182 
 182   0.0000      43.007117      1170.2832 
 183   0.0000      43.178885      1174.9572 
 184   0.0000      43.214494      1175.9262 
 185   0.0000      43.272361      1177.5008 
 186   0.0000      70.125896      1908.2226 
 187   0.0000     583.328468     15873.1746 

                    ********************************
                    * MULLIKEN POPULATION ANALYSIS *
                    ********************************

-----------------------
MULLIKEN ATOMIC CHARGES
-----------------------
   0 W :    0.787402
   1 O :   -0.546624
   2 H :    0.342375
   3 O :   -0.544495
   4 H :    0.343967
   5 O :   -0.532927
   6 H :    0.342851
   7 O :   -0.537085
   8 H :    0.344537
Sum of atomic charges:    0.0000000

--------------------------------
MULLIKEN REDUCED ORBITAL CHARGES
--------------------------------
  0 W s       :     2.908572  s :     2.908572
      pz      :     2.098580  p :     6.379013
      px      :     2.139981
      py      :     2.140453
      dz2     :     1.444030  d :     3.767214
      dxz     :     0.595335
      dyz     :     0.544903
      dx2y2   :     0.577826
      dxy     :     0.605120
      f0      :     0.012306  f :     0.157798
      f+1     :     0.013670
      f-1     :     0.014191
      f+2     :     0.027910
      f-2     :     0.010256
      f+3     :     0.040674
      f-3     :     0.038792
  1 O s       :     3.788785  s :     3.788785
      pz      :     1.449684  p :     4.738944
      px      :     1.761832
      py      :     1.527428
      dz2     :     0.004080  d :     0.017219
      dxz     :     0.000609
      dyz     :     0.007377
      dx2y2   :     0.002975
      dxy     :     0.002178
      f0      :     0.000234  f :     0.001677
      f+1     :     0.000027
      f-1     :     0.000616
      f+2     :     0.000337
      f-2     :     0.000141
      f+3     :     0.000154
      f-3     :     0.000169
  2 H s       :     0.608081  s :     0.608081
      pz      :     0.018127  p :     0.049544
      px      :     0.015385
      py      :     0.016032
  3 O s       :     3.799679  s :     3.799679
      pz      :     1.499401  p :     4.724784
      px      :     1.484410
      py      :     1.740973
      dz2     :     0.003761  d :     0.018598
      dxz     :     0.007057
      dyz     :     0.001803
      dx2y2   :     0.003290
      dxy     :     0.002689
      f0      :     0.000078  f :     0.001434
      f+1     :     0.000510
      f-1     :     0.000073
      f+2     :     0.000256
      f-2     :     0.000140
      f+3     :     0.000190
      f-3     :     0.000187
  4 H s       :     0.606920  s :     0.606920
      pz      :     0.017567  p :     0.049113
      px      :     0.016263
      py      :     0.015283
  5 O s       :     3.796709  s :     3.796709
      pz      :     1.577656  p :     4.715371
      px      :     1.603078
      py      :     1.534637
      dz2     :     0.001958  d :     0.019471
      dxz     :     0.004498
      dyz     :     0.005210
      dx2y2   :     0.004167
      dxy     :     0.003638
      f0      :     0.000125  f :     0.001376
      f+1     :     0.000194
      f-1     :     0.000207
      f+2     :     0.000200
      f-2     :     0.000309
      f+3     :     0.000126
      f-3     :     0.000215
  6 H s       :     0.608037  s :     0.608037
      pz      :     0.016922  p :     0.049112
      px      :     0.016619
      py      :     0.015572
  7 O s       :     3.797238  s :     3.797238
      pz      :     1.420077  p :     4.719110
      px      :     1.567445
      py      :     1.731588
      dz2     :     0.004883  d :     0.019307
      dxz     :     0.005598
      dyz     :     0.002458
      dx2y2   :     0.003491
      dxy     :     0.002877
      f0      :     0.000316  f :     0.001430
      f+1     :     0.000331
      f-1     :     0.000202
      f+2     :     0.000195
      f-2     :     0.000154
      f+3     :     0.000117
      f-3     :     0.000116
  8 H s       :     0.606397  s :     0.606397
      pz      :     0.018893  p :     0.049066
      px      :     0.014880
      py      :     0.015293


                     *******************************
                     * LOEWDIN POPULATION ANALYSIS *
                     *******************************

----------------------
LOEWDIN ATOMIC CHARGES
----------------------
   0 W :    0.340559
   1 O :   -0.248233
   2 H :    0.171834
   3 O :   -0.255827
   4 H :    0.169547
   5 O :   -0.257284
   6 H :    0.168172
   7 O :   -0.255668
   8 H :    0.166899

-------------------------------
LOEWDIN REDUCED ORBITAL CHARGES
-------------------------------
  0 W s       :     2.563131  s :     2.563131
      pz      :     2.101503  p :     6.434886
      px      :     2.165425
      py      :     2.167959
      dz2     :     1.535106  d :     4.359228
      dxz     :     0.672531
      dyz     :     0.627812
      dx2y2   :     0.836876
      dxy     :     0.686904
      f0      :     0.023245  f :     0.302196
      f+1     :     0.025140
      f-1     :     0.026582
      f+2     :     0.055262
      f-2     :     0.018751
      f+3     :     0.076251
      f-3     :     0.076965
  1 O s       :     3.480195  s :     3.480195
      pz      :     1.480540  p :     4.725250
      px      :     1.695974
      py      :     1.548736
      dz2     :     0.008362  d :     0.039606
      dxz     :     0.000927
      dyz     :     0.017391
      dx2y2   :     0.009258
      dxy     :     0.003669
      f0      :     0.000494  f :     0.003182
      f+1     :     0.000011
      f-1     :     0.001157
      f+2     :     0.000790
      f-2     :     0.000116
      f+3     :     0.000207
      f-3     :     0.000407
  2 H s       :     0.666911  s :     0.666911
      pz      :     0.077295  p :     0.161254
      px      :     0.039725
      py      :     0.044234
  3 O s       :     3.498209  s :     3.498209
      pz      :     1.509934  p :     4.716377
      px      :     1.518488
      py      :     1.687954
      dz2     :     0.007653  d :     0.038324
      dxz     :     0.013486
      dyz     :     0.002186
      dx2y2   :     0.010233
      dxy     :     0.004764
      f0      :     0.000213  f :     0.002918
      f+1     :     0.001079
      f-1     :     0.000141
      f+2     :     0.000504
      f-2     :     0.000208
      f+3     :     0.000488
      f-3     :     0.000285
  4 H s       :     0.669648  s :     0.669648
      pz      :     0.072278  p :     0.160805
      px      :     0.046172
      py      :     0.042355
  5 O s       :     3.500268  s :     3.500268
      pz      :     1.562943  p :     4.714286
      px      :     1.588840
      py      :     1.562502
      dz2     :     0.004437  d :     0.039810
      dxz     :     0.008008
      dyz     :     0.009535
      dx2y2   :     0.011394
      dxy     :     0.006436
      f0      :     0.000300  f :     0.002920
      f+1     :     0.000321
      f-1     :     0.000441
      f+2     :     0.000412
      f-2     :     0.000583
      f+3     :     0.000285
      f-3     :     0.000580
  6 H s       :     0.671201  s :     0.671201
      pz      :     0.060771  p :     0.160627
      px      :     0.058734
      py      :     0.041122
  7 O s       :     3.496926  s :     3.496926
      pz      :     1.451363  p :     4.716075
      px      :     1.579472
      py      :     1.685241
      dz2     :     0.009466  d :     0.039683
      dxz     :     0.013277
      dyz     :     0.004157
      dx2y2   :     0.008377
      dxy     :     0.004407
      f0      :     0.000670  f :     0.002983
      f+1     :     0.000650
      f-1     :     0.000372
      f+2     :     0.000530
      f-2     :     0.000229
      f+3     :     0.000309
      f-3     :     0.000222
  8 H s       :     0.671203  s :     0.671203
      pz      :     0.079077  p :     0.161898
      px      :     0.038319
      py      :     0.044502


                      *****************************
                      * MAYER POPULATION ANALYSIS *
                      *****************************

  NA   - Mulliken gross atomic population
  ZA   - Total nuclear charge
  QA   - Mulliken gross atomic charge
  VA   - Mayer's total valence
  BVA  - Mayer's bonded valence
  FA   - Mayer's free valence

  ATOM       NA         ZA         QA         VA         BVA        FA
  0 W     13.2126    14.0000     0.7874     4.8893     4.8893     0.0000
  1 O      8.5466     8.0000    -0.5466     2.1659     2.1659     0.0000
  2 H      0.6576     1.0000     0.3424     0.8896     0.8896     0.0000
  3 O      8.5445     8.0000    -0.5445     2.1643     2.1643     0.0000
  4 H      0.6560     1.0000     0.3440     0.8864     0.8864     0.0000
  5 O      8.5329     8.0000    -0.5329     2.1707     2.1707    -0.0000
  6 H      0.6571     1.0000     0.3429     0.8847     0.8847    -0.0000
  7 O      8.5371     8.0000    -0.5371     2.1650     2.1650    -0.0000
  8 H      0.6555     1.0000     0.3445     0.8839     0.8839    -0.0000

  Mayer bond orders larger than 0.1
B(  0-W ,  1-O ) :   1.2122 B(  0-W ,  3-O ) :   1.2077 B(  0-W ,  5-O ) :   1.2202 
B(  0-W ,  7-O ) :   1.2179 B(  1-O ,  2-H ) :   0.8687 B(  3-O ,  4-H ) :   0.8737 
B(  5-O ,  6-H ) :   0.8748 B(  7-O ,  8-H ) :   0.8735 

-------
TIMINGS
-------

Total SCF time: 0 days 0 hours 0 min 16 sec 

Total time                  ....      16.554 sec
Sum of individual times     ....      16.272 sec  ( 98.3%)

Fock matrix formation       ....      12.713 sec  ( 76.8%)
  Split-RI-J                ....       6.150 sec  ( 48.4% of F)
  XC integration            ....       6.303 sec  ( 49.6% of F)
    Basis function eval.    ....       2.290 sec  ( 36.3% of XC)
    Density eval.           ....       1.464 sec  ( 23.2% of XC)
    XC-Functional eval.     ....       0.331 sec  (  5.3% of XC)
    XC-Potential eval.      ....       1.879 sec  ( 29.8% of XC)
Diagonalization             ....       0.192 sec  (  1.2%)
Density matrix formation    ....       0.007 sec  (  0.0%)
Population analysis         ....       0.020 sec  (  0.1%)
Initial guess               ....       1.812 sec  ( 10.9%)
Orbital Transformation      ....       0.000 sec  (  0.0%)
Orbital Orthonormalization  ....       0.000 sec  (  0.0%)
DIIS solution               ....       0.202 sec  (  1.2%)
Grid generation             ....       1.326 sec  (  8.0%)

-------------------------   --------------------
FINAL SINGLE POINT ENERGY      -370.401850169375
-------------------------   --------------------


                            ***************************************
                            *     ORCA property calculations      *
                            ***************************************

                                    ---------------------
                                    Active property flags
                                    ---------------------
   (+) Dipole Moment


------------------------------------------------------------------------------
                       ORCA ELECTRIC PROPERTIES CALCULATION
------------------------------------------------------------------------------

Dipole Moment Calculation                       ... on
Quadrupole Moment Calculation                   ... off
Polarizability Calculation                      ... off
GBWName                                         ... freq.gbw
Electron density file                           ... freq.scfp.tmp
The origin for moment calculation is the CENTER OF MASS  = (-1.220557,  1.269429 -0.174535)

-------------
DIPOLE MOMENT
-------------
                                X             Y             Z
Electronic contribution:      0.07952      -0.79569      -0.45760
Nuclear contribution   :      0.13735       0.70092       0.49813
                        -----------------------------------------
Total Dipole Moment    :      0.21687      -0.09476       0.04053
                        -----------------------------------------
Magnitude (a.u.)       :      0.24012
Magnitude (Debye)      :      0.61034


-------------------------------------------------------------------------------
                               ORCA SCF HESSIAN
-------------------------------------------------------------------------------

Hessian of the Kohn-Sham DFT energy:
Kohn-Sham wavefunction type                      ... RKS
Hartree-Fock exchange scaling                    ...    0.000
Number of operators                              ...    1
Number of atoms                                  ...    9
Basis set dimensions                             ...  188
Integral neglect threshold                       ... 1.0e-10
Integral primitive cutoff                        ... 1.0e-11

Setting up DFT Hessian calculations              ... 
Electron density on the grid                     ... found on disk
Electron density on the final grid               ... found on disk
Building xc-kernel on the grid                   ... done   (      0.0 sec)
Building xc-kernel on the final grid             ... done   (      0.1 sec)
                                                     done   (      0.3 sec)

Nuclear repulsion Hessian                        ... done   (      0.0 sec)

----------------------------------------------
Forming right-hand sides of CP-SCF equations     ...
----------------------------------------------
One electron integral derivatives                ... done   (      0.3 sec)
Transforming the overlap derivative matrices     ... done   (      0.1 sec)
Making the Q(x) pseudodensities                  ... done   (      0.0 sec)
Adding the E*S(x)*S(y) terms to the Hessian      ... done   (      0.0 sec)
Calculating energy weighted overlap derivatives  ... done   (      0.3 sec)
F(y): ECP integral derivatives                   ... done   (     20.8 sec)
Two electron integral derivatives (RI)           ... done   (      2.5 sec)
Exchange-correlation integral derivatives        ... done   (     47.1 sec)
tr(F(y)Q(x)) contribution to the Hessian         ... done   (      0.0 sec)
Response fock operator R(S(x)) (RI)              ... done   (      7.7 sec)
XC Response fock operator R(S(x))                ... done   (     12.7 sec)
tr(F(y)S(x)) contribution to the Hessian         ... done   (      0.0 sec)
Transforming and finalizing RHSs                 ... done   (      0.1 sec)

----------------------------------------------
Solving the CP-SCF equations (RI)                ...
----------------------------------------------
     CP-SCF ITERATION   0: 
     CP-SCF ITERATION   1:      0.017184640117
     CP-SCF ITERATION   2:      0.000912199570
     CP-SCF ITERATION   3:      0.000132383033
     CP-SCF ITERATION   4:      0.000006920470
     CP-SCF ITERATION   5:      0.000001321056
     CP-SCF ITERATION   6:      0.000000929617

                                                 ... done   (    101.8 sec)
Forming perturbed density Hessian contributions  ... done   (      0.0 sec)
Making the perturbed densities                   ... done   (      0.1 sec)
2nd integral derivative contribs (RI)            ... done   (      8.5 sec)
Exchange-correlation Hessian                     ... done   (     25.3 sec)
ECP integral 2nd derivatives                     ... done   (     59.7 sec)
Dipol derivatives                                ... done   (      0.9 sec)

Total SCF Hessian time: 0 days 0 hours 4 min 48 sec 

Writing the Hessian file to the disk             ... done


-----------------------
VIBRATIONAL FREQUENCIES
-----------------------

   0:         0.00 cm**-1
   1:         0.00 cm**-1
   2:         0.00 cm**-1
   3:         0.00 cm**-1
   4:         0.00 cm**-1
   5:         0.00 cm**-1
   6:       104.37 cm**-1
   7:       152.08 cm**-1
   8:       197.69 cm**-1
   9:       209.20 cm**-1
  10:       212.53 cm**-1
  11:       293.91 cm**-1
  12:       297.41 cm**-1
  13:       313.62 cm**-1
  14:       378.49 cm**-1
  15:       539.09 cm**-1
  16:       569.40 cm**-1
  17:       601.56 cm**-1
  18:       654.42 cm**-1
  19:       698.33 cm**-1
  20:       711.88 cm**-1
  21:       718.83 cm**-1
  22:       738.31 cm**-1
  23:      3750.69 cm**-1
  24:      3762.62 cm**-1
  25:      3794.87 cm**-1
  26:      3800.26 cm**-1


------------
NORMAL MODES
------------

These modes are the cartesian displacements weighted by the diagonal matrix
M(i,i)=1/sqrt(m[i]) where m[i] is the mass of the displaced atom
Thus, these vectors are normalized but *not* orthogonal

                  0          1          2          3          4          5    
      0       0.000000   0.000000   0.000000   0.000000   0.000000   0.000000
      1       0.000000   0.000000   0.000000   0.000000   0.000000   0.000000
      2       0.000000   0.000000   0.000000   0.000000   0.000000   0.000000
      3       0.000000   0.000000   0.000000   0.000000   0.000000   0.000000
      4       0.000000   0.000000   0.000000   0.000000   0.000000   0.000000
      5       0.000000   0.000000   0.000000   0.000000   0.000000   0.000000
      6       0.000000   0.000000   0.000000   0.000000   0.000000   0.000000
      7       0.000000   0.000000   0.000000   0.000000   0.000000   0.000000
      8       0.000000   0.000000   0.000000   0.000000   0.000000   0.000000
      9       0.000000   0.000000   0.000000   0.000000   0.000000   0.000000
     10       0.000000   0.000000   0.000000   0.000000   0.000000   0.000000
     11       0.000000   0.000000   0.000000   0.000000   0.000000   0.000000
     12       0.000000   0.000000   0.000000   0.000000   0.000000   0.000000
     13       0.000000   0.000000   0.000000   0.000000   0.000000   0.000000
     14       0.000000   0.000000   0.000000   0.000000   0.000000   0.000000
     15       0.000000   0.000000   0.000000   0.000000   0.000000   0.000000
     16       0.000000   0.000000   0.000000   0.000000   0.000000   0.000000
     17       0.000000   0.000000   0.000000   0.000000   0.000000   0.000000
     18       0.000000   0.000000   0.000000   0.000000   0.000000   0.000000
     19       0.000000   0.000000   0.000000   0.000000   0.000000   0.000000
     20       0.000000   0.000000   0.000000   0.000000   0.000000   0.000000
     21       0.000000   0.000000   0.000000   0.000000   0.000000   0.000000
     22       0.000000   0.000000   0.000000   0.000000   0.000000   0.000000
     23       0.000000   0.000000   0.000000   0.000000   0.000000   0.000000
     24       0.000000   0.000000   0.000000   0.000000   0.000000   0.000000
     25       0.000000   0.000000   0.000000   0.000000   0.000000   0.000000
     26       0.000000   0.000000   0.000000   0.000000   0.000000   0.000000
                  6          7          8          9         10         11    
      0       0.006645  -0.008544   0.026118  -0.014005   0.042626   0.001573
      1       0.003289  -0.003622   0.006335  -0.027037  -0.059571   0.003373
      2       0.004334  -0.003335  -0.042990  -0.032687   0.037090  -0.001266
      3       0.056560   0.076638  -0.148641   0.138557  -0.298758  -0.133655
      4       0.009596  -0.049281  -0.051205  -0.025304   0.057925   0.014378
      5      -0.028752   0.123723   0.142137  -0.050075  -0.186636  -0.023013
      6      -0.802573  -0.504018  -0.202264  -0.167750  -0.312036  -0.760105
      7       0.187215  -0.181326  -0.372935  -0.029276   0.116347   0.164503
      8      -0.121355   0.192898   0.311711  -0.048769  -0.217054  -0.101513
      9       0.004893  -0.009576   0.034012   0.039315   0.045802  -0.026054
     10       0.029297   0.068945  -0.034345   0.174039   0.270632  -0.226597
     11       0.022791  -0.107144   0.055625   0.196592  -0.198299  -0.024267
     12      -0.025997  -0.206705   0.175456   0.206024  -0.096049   0.032186
     13      -0.425034  -0.143282  -0.186984   0.293855   0.481256   0.198098
     14      -0.115426  -0.288241   0.105919   0.334466  -0.233309   0.122570
     15      -0.048572   0.004728  -0.113121   0.035290  -0.304151   0.170717
     16      -0.002824   0.017874   0.051389  -0.005047   0.002171  -0.012206
     17      -0.067884   0.148032   0.132853   0.057725  -0.014505   0.021398
     18      -0.187698   0.128387  -0.103928   0.244361  -0.155378   0.211056
     19      -0.002789   0.105349   0.268019  -0.067715  -0.057255  -0.056497
     20      -0.195728   0.311627   0.265042   0.213045   0.085050   0.034785
     21      -0.022132   0.047403  -0.047599  -0.054128   0.088974   0.006460
     22      -0.051715  -0.008045   0.009872   0.113824   0.311443   0.141544
     23       0.046699  -0.120571   0.100763   0.137534  -0.004298   0.038264
     24      -0.048879   0.248850  -0.262587  -0.252377   0.219082  -0.047239
     25      -0.110885   0.411796  -0.477989   0.647204   0.132257   0.394227
     26       0.072813  -0.306929   0.311523   0.038455   0.008573  -0.021409
                 12         13         14         15         16         17    
      0      -0.012850   0.006477  -0.003496  -0.000286   0.008835   0.007779
      1      -0.004545   0.006472  -0.005087  -0.006753  -0.000888   0.005360
      2       0.005198   0.001872  -0.004104   0.004539  -0.001065   0.002001
      3       0.080529   0.048199   0.032596   0.025689   0.007471   0.008293
      4      -0.020197  -0.008170  -0.008122   0.140386  -0.036016   0.028201
      5      -0.000891   0.012655   0.020169  -0.053272   0.001708   0.006083
      6      -0.199712  -0.272098  -0.049143  -0.156322   0.005959  -0.014575
      7      -0.007057   0.083794   0.021036  -0.802384   0.072296   0.079662
      8      -0.006809  -0.035851   0.005022   0.446941  -0.055769  -0.020325
      9       0.007416   0.004718  -0.009292  -0.041931  -0.060920  -0.186451
     10       0.018187  -0.048745   0.023814  -0.008679   0.011998   0.042956
     11      -0.007512  -0.031285  -0.019475  -0.013746  -0.012223  -0.037668
     12      -0.017341   0.079220  -0.008163   0.151512   0.375707   0.491178
     13       0.167845   0.888173   0.315490   0.009607  -0.107086  -0.127025
     14       0.015707   0.259957   0.056880   0.115785   0.238297   0.358804
     15       0.043469  -0.101232   0.063572   0.006128   0.008519   0.005190
     16      -0.001047   0.028106  -0.018134   0.021334   0.021714  -0.165072
     17      -0.011763  -0.021769   0.083080  -0.015050   0.014751  -0.027399
     18       0.331674   0.053861  -0.729720   0.011554   0.041863  -0.070624
     19      -0.084401   0.044475   0.154640  -0.214947  -0.120430   0.601290
     20       0.205367   0.129061  -0.544536  -0.147180  -0.038226   0.354746
     21       0.016447  -0.018513   0.004322   0.010792  -0.134382   0.070206
     22       0.102123  -0.110896   0.039359  -0.011923   0.033750  -0.004561
     23      -0.068651  -0.000222  -0.009641   0.004141   0.012714  -0.011587
     24      -0.117737   0.018333  -0.022922   0.034653   0.811076  -0.193777
     25      -0.819732   0.020476  -0.149349  -0.000390  -0.181973   0.031418
     26       0.247345  -0.049937   0.054501  -0.006656  -0.219047   0.062012
                 18         19         20         21         22         23    
      0       0.001995  -0.041664  -0.019793  -0.005864   0.006721  -0.000029
      1      -0.006587   0.024587  -0.030206  -0.019101  -0.005940   0.000053
      2      -0.001163  -0.006307   0.006436  -0.026209  -0.007400   0.000031
      3      -0.005161  -0.001753   0.008582   0.006529   0.014430   0.000049
      4      -0.023893  -0.059455   0.110056   0.180983   0.279405  -0.000275
      5       0.043451  -0.027510   0.045528   0.107589   0.154585  -0.001246
      6       0.034402  -0.056942   0.032838   0.037689   0.047657  -0.000201
      7       0.271610  -0.086170   0.202496   0.432008   0.539267   0.009585
      8      -0.116429  -0.014258   0.000173  -0.021929   0.027549   0.019623
      9      -0.089249   0.219871   0.135771  -0.111222   0.140170  -0.002332
     10       0.021740  -0.014860  -0.004589   0.000360  -0.012466  -0.001062
     11      -0.048543  -0.072286  -0.054508   0.067180  -0.035440   0.003896
     12       0.429155   0.659117   0.493144  -0.491945   0.254014   0.039900
     13      -0.147830  -0.098901  -0.151249   0.141050  -0.054503   0.016422
     14       0.246953   0.185333   0.135229  -0.140564   0.020038  -0.062574
     15      -0.014752  -0.030012   0.055422  -0.005886  -0.052826  -0.038557
     16       0.123988  -0.144476   0.188221   0.029232  -0.221022  -0.025871
     17       0.043364   0.040511  -0.070180   0.004378   0.066581   0.042064
     18       0.114228  -0.015266  -0.079000   0.091631   0.056379   0.617556
     19      -0.599911  -0.312473   0.752980  -0.061606  -0.550297   0.393962
     20      -0.269119  -0.041701   0.134979   0.039283  -0.016757  -0.671500
     21       0.074028   0.222036  -0.000946   0.162998  -0.181348   0.000612
     22      -0.020587  -0.027007   0.000747  -0.009647   0.023762   0.000964
     23      -0.022314   0.120212  -0.010440   0.126396  -0.098384   0.002712
     24      -0.383966   0.502375   0.007168   0.600217  -0.320966  -0.013415
     25       0.070543  -0.085499   0.031866  -0.216826   0.042956  -0.013178
     26       0.097482   0.053867  -0.022178   0.053924  -0.067412  -0.044044
                  24         25         26    
      0       0.000054  -0.000049  -0.000001
      1      -0.000024  -0.000002   0.000065
      2       0.000024   0.000023   0.000011
      3       0.000038   0.000015  -0.000128
      4       0.001619   0.009442  -0.029081
      5       0.003641   0.017681  -0.052824
      6       0.000264  -0.000493   0.000875
      7      -0.030529  -0.147968   0.440728
      8      -0.058490  -0.281060   0.834271
      9      -0.034162  -0.000655  -0.002955
     10      -0.013029  -0.000070  -0.000760
     11       0.051100   0.000415   0.003619
     12       0.525701   0.006526   0.038082
     13       0.211534   0.002066   0.015043
     14      -0.814837  -0.008368  -0.057896
     15       0.002849   0.001431   0.001541
     16       0.002198   0.001237   0.001656
     17      -0.003079  -0.001709  -0.001628
     18      -0.044673  -0.024302  -0.025246
     19      -0.029291  -0.015657  -0.017401
     20       0.048956   0.026626   0.027313
     21      -0.000263   0.017956   0.006395
     22      -0.000704   0.015893   0.005183
     23      -0.002129   0.054591   0.018280
     24       0.009430  -0.270332  -0.090531
     25       0.010076  -0.258630  -0.085117
     26       0.033869  -0.868053  -0.289010


-----------
IR SPECTRUM
-----------

 Mode    freq (cm**-1)   T**2         TX         TY         TZ
-------------------------------------------------------------------
   6:       104.37   75.613150  ( -8.071949  -2.092357  -2.465527)
   7:       152.08   16.309776  ( -3.912265   0.383008  -0.925884)
   8:       197.69   31.951676  (  0.684277  -4.540389   3.296712)
   9:       209.20    5.340076  ( -1.881813   1.187388   0.623671)
  10:       212.53    9.170850  (  2.189299  -2.058571   0.374305)
  11:       293.91   36.671275  ( -3.839146   4.669011   0.364099)
  12:       297.41   71.684567  ( -1.642428  -6.939945   4.563350)
  13:       313.62   97.110422  ( -0.899190   9.245195   3.290629)
  14:       378.49   77.807637  ( -7.188742   3.338740  -3.870715)
  15:       539.09  236.700097  (  1.077654 -15.302852  -1.166828)
  16:       569.40  380.764409  ( 18.814681  -2.743762   4.386792)
  17:       601.56  168.418562  (  8.864503   9.108925  -2.620428)
  18:       654.42   70.197370  (  1.388705  -8.155702  -1.324157)
  19:       698.33   58.986306  ( -5.979597   4.683230  -1.139333)
  20:       711.88   20.009010  ( -1.756430  -4.103479  -0.292272)
  21:       718.83   37.721568  ( -1.517546  -5.173174  -2.942260)
  22:       738.31    9.220142  (  1.366929  -2.485189  -1.084196)
  23:      3750.69  201.811326  (  5.996069   9.766385  -8.395011)
  24:      3762.62  188.434370  ( 10.806372  -0.473256  -8.451788)
  25:      3794.87  273.779496  ( -7.692143  -4.616116 -13.903306)
  26:      3800.26  135.118854  ( -1.745950   9.292986   6.760985)

The first frequency considered to be a vibration is 6
The total number of vibrations considered is 21


--------------------------
THERMOCHEMISTRY AT 298.15K
--------------------------

Temperature         ... 298.15 K
Pressure            ... 1.00 atm
Total Mass          ... 251.88 AMU

Throughout the following assumptions are being made:
  (1) The electronic state is orbitally nondegenerate
  (2) There are no thermally accessible electronically excited states
  (3) Hindered rotations indicated by low frequency modes are not
      treated as such but are treated as vibrations and this may
      cause some error
  (4) All equations used are the standard statistical mechanics
      equations for an ideal gas
  (5) All vibrations are strictly harmonic

freq.     104.37  E(vib)   ...       0.46 
freq.     152.08  E(vib)   ...       0.40 
freq.     197.69  E(vib)   ...       0.35 
freq.     209.20  E(vib)   ...       0.34 
freq.     212.53  E(vib)   ...       0.34 
freq.     293.91  E(vib)   ...       0.27 
freq.     297.41  E(vib)   ...       0.27 
freq.     313.62  E(vib)   ...       0.25 
freq.     378.49  E(vib)   ...       0.21 
freq.     539.09  E(vib)   ...       0.12 
freq.     569.40  E(vib)   ...       0.11 
freq.     601.56  E(vib)   ...       0.10 
freq.     654.42  E(vib)   ...       0.08 
freq.     698.33  E(vib)   ...       0.07 
freq.     711.88  E(vib)   ...       0.07 
freq.     718.83  E(vib)   ...       0.07 
freq.     738.31  E(vib)   ...       0.06 
freq.    3750.69  E(vib)   ...       0.00 
freq.    3762.62  E(vib)   ...       0.00 
freq.    3794.87  E(vib)   ...       0.00 
freq.    3800.26  E(vib)   ...       0.00 

------------
INNER ENERGY
------------

The inner energy is: U= E(el) + E(ZPE) + E(vib) + E(rot) + E(trans)
    E(el)   - is the total energy from the electronic structure calculation
              = E(kin-el) + E(nuc-el) + E(el-el) + E(nuc-nuc)
    E(ZPE)  - the the zero temperature vibrational energy from the frequency calculation
    E(vib)  - the the finite temperature correction to E(ZPE) due to population
              of excited vibrational states
    E(rot)  - is the rotational thermal energy
    E(trans)- is the translational thermal energy

Summary of contributions to the inner energy U:
Electronic energy                ...   -370.40185017 Eh
Zero point energy                ...      0.05125781 Eh      32.16 kcal/mol
Thermal vibrational correction   ...      0.00569459 Eh       3.57 kcal/mol
Thermal rotational correction    ...      0.00141627 Eh       0.89 kcal/mol
Thermal translational correction ...      0.00141627 Eh       0.89 kcal/mol
-----------------------------------------------------------------------
Total thermal energy                   -370.34206523 Eh


Summary of corrections to the electronic energy:
(perhaps to be used in another calculation)
Total thermal correction                  0.00852713 Eh       5.35 kcal/mol
Non-thermal (ZPE) correction              0.05125781 Eh      32.16 kcal/mol
-----------------------------------------------------------------------
Total correction                          0.05978494 Eh      37.52 kcal/mol


--------
ENTHALPY
--------

The enthalpy is H = U + kB*T
                kB is Boltzmann's constant
Total free energy                 ...   -370.34206523 Eh 
Thermal Enthalpy correction       ...      0.00094421 Eh       0.59 kcal/mol
-----------------------------------------------------------------------
Total Enthalpy                    ...   -370.34112102 Eh


Vibrational entropy computed according to the QRRHO of S. Grimme
Chem.Eur.J. 2012 18 9955


-------
ENTROPY
-------

The entropy contributions are T*S = T*(S(el)+S(vib)+S(rot)+S(trans)
     S(el)   - electronic entropy
     S(vib)  - vibrational entropy
     S(rot)  - rotational entropy
     S(trans)- translational entropy
The entropies will be listed as mutliplied by the temperature to get
units of energy

Electronic entropy                ...      0.00000000 Eh      0.00 kcal/mol
Vibrational entropy               ...      0.00963937 Eh      6.05 kcal/mol
Rotational entropy                ...      0.01169487 Eh      7.34 kcal/mol
Translational entropy             ...      0.02017956 Eh     12.66 kcal/mol
-----------------------------------------------------------------------
Final entropy term                ...      0.04151379 Eh     26.05 kcal/mol


CAUTION: The rotational entropy is not quite correctly treated here
         because it includes a symmetry number that is not yet correctly
         implemented in ORCA!
For a nonlinear molecule the correct rotational entropy is:
    S(rot) = R*(ln(qrot/sn)+1.5)
    R    = 8.31441 J/mol/K = 1.987191683e-3 kcal/mol/K
    qrot = 160310.2858781
    sn is the rotational symmetry number. We have assumed 3 here
       if it is different for your molecule then you should correct
       the printed rotational entropy by manually evaluating the equation
       as given above

For convenience we print out the resulting values for sn=1 - 12:
 sn= 1  qrot/sn=  160310.2859 T*S(rot)=     7.99 kcal/mol T*S(tot)=    26.70 kcal/mol
 sn= 2  qrot/sn=   80155.1429 T*S(rot)=     7.58 kcal/mol T*S(tot)=    26.29 kcal/mol
 sn= 3  qrot/sn=   53436.7620 T*S(rot)=     7.34 kcal/mol T*S(tot)=    26.05 kcal/mol
 sn= 4  qrot/sn=   40077.5715 T*S(rot)=     7.17 kcal/mol T*S(tot)=    25.88 kcal/mol
 sn= 5  qrot/sn=   32062.0572 T*S(rot)=     7.04 kcal/mol T*S(tot)=    25.75 kcal/mol
 sn= 6  qrot/sn=   26718.3810 T*S(rot)=     6.93 kcal/mol T*S(tot)=    25.64 kcal/mol
 sn= 7  qrot/sn=   22901.4694 T*S(rot)=     6.84 kcal/mol T*S(tot)=    25.55 kcal/mol
 sn= 8  qrot/sn=   20038.7857 T*S(rot)=     6.76 kcal/mol T*S(tot)=    25.47 kcal/mol
 sn= 9  qrot/sn=   17812.2540 T*S(rot)=     6.69 kcal/mol T*S(tot)=    25.40 kcal/mol
 sn=10  qrot/sn=   16031.0286 T*S(rot)=     6.63 kcal/mol T*S(tot)=    25.34 kcal/mol
 sn=11  qrot/sn=   14573.6624 T*S(rot)=     6.57 kcal/mol T*S(tot)=    25.28 kcal/mol
 sn=12  qrot/sn=   13359.1905 T*S(rot)=     6.52 kcal/mol T*S(tot)=    25.23 kcal/mol


-------------------
GIBBS FREE ENTHALPY
-------------------

The Gibbs free enthalpy is G = H - T*S

Total enthalpy                    ...   -370.34112102 Eh 
Total entropy correction          ...     -0.04151379 Eh    -26.05 kcal/mol
-----------------------------------------------------------------------
Final Gibbs free enthalpy         ...   -370.38263481 Eh

For completeness - the Gibbs free enthalpy minus the electronic energy
G-E(el)                           ...      0.01921536 Eh     12.06 kcal/mol


Timings for individual modules:

Sum of individual times         ...      305.868 sec (=   5.098 min)
GTO integral calculation        ...        0.914 sec (=   0.015 min)   0.3 %
SCF iterations                  ...       16.593 sec (=   0.277 min)   5.4 %
Analytical frequency calculation...      288.361 sec (=   4.806 min)  94.3 %
                             ****ORCA TERMINATED NORMALLY****
TOTAL RUN TIME: 0 days 0 hours 5 minutes 6 seconds 152 msec
