
                                 *****************
                                 * O   R   C   A *
                                 *****************

           --- An Ab Initio, DFT and Semiempirical electronic structure package ---

                  #######################################################
                  #                        -***-                        #
                  #  Department of molecular theory and spectroscopy    #
                  #              Directorship: Frank Neese              #
                  # Max Planck Institute for Chemical Energy Conversion #
                  #                  D-45470 Muelheim/Ruhr              #
                  #                       Germany                       #
                  #                                                     #
                  #                  All rights reserved                #
                  #                        -***-                        #
                  #######################################################


                         Program Version 4.0.1.2 - RELEASE -


 With contributions from (in alphabetic order):
   Daniel Aravena         : Magnetic Properties
   Michael Atanasov       : Ab Initio Ligand Field Theory
   Ute Becker             : Parallelization
   Martin Brehm           : Molecular dynamics
   Dmytro Bykov           : SCF Hessian
   Vijay G. Chilkuri      : MRCI spin determinant printing
   Dipayan Datta          : RHF DLPNO-CCSD density
   Achintya Kumar Dutta   : EOM-CC, STEOM-CC
   Dmitry Ganyushin       : Spin-Orbit,Spin-Spin,Magnetic field MRCI
   Yang Guo               : DLPNO-NEVPT2, CIM, IAO-localization
   Andreas Hansen         : Spin unrestricted coupled pair/coupled cluster methods
   Lee Huntington         : MR-EOM, pCC
   Robert Izsak           : Overlap fitted RIJCOSX, COSX-SCS-MP3, EOM
   Christian Kollmar      : KDIIS, OOCD, Brueckner-CCSD(T), CCSD density
   Simone Kossmann        : Meta GGA functionals, TD-DFT gradient, OOMP2, MP2 Hessian
   Martin Krupicka        : AUTO-CI
   Dagmar Lenk            : GEPOL surface
   Dimitrios Liakos       : Extrapolation schemes; parallel MDCI
   Dimitrios Manganas     : ROCIS; embedding schemes
   Dimitrios Pantazis     : SARC Basis sets
   Taras Petrenko         : DFT Hessian,TD-DFT gradient, ASA, ECA, R-Raman, ABS, FL, XAS/XES, NRVS
   Peter Pinski           : DLPNO-MP2
   Christoph Reimann      : Effective Core Potentials
   Marius Retegan         : Local ZFS, SOC
   Christoph Riplinger    : Optimizer, TS searches, QM/MM, DLPNO-CCSD(T), (RO)-DLPNO pert. Triples
   Tobias Risthaus        : Range-separated hybrids, TD-DFT gradient, RPA, STAB
   Michael Roemelt        : Restricted open shell CIS
   Masaaki Saitow         : Open-shell DLPNO
   Barbara Sandhoefer     : DKH picture change effects
   Kantharuban Sivalingam : CASSCF convergence, NEVPT2, FIC-MRCI
   Georgi Stoychev        : AutoAux
   Boris Wezisla          : Elementary symmetry handling
   Frank Wennmohs         : Technical directorship


 We gratefully acknowledge several colleagues who have allowed us to
 interface, adapt or use parts of their codes:
   Stefan Grimme, W. Hujo, H. Kruse,             : VdW corrections, initial TS optimization,
                  C. Bannwarth                     DFT functionals, gCP, sTDA/sTD-DF
   Ed Valeev                                     : LibInt (2-el integral package), F12 methods
   Garnet Chan, S. Sharma, J. Yang, R. Olivares  : DMRG
   Ulf Ekstrom                                   : XCFun DFT Library
   Mihaly Kallay                                 : mrcc  (arbitrary order and MRCC methods)
   Andreas Klamt, Michael Diedenhofen            : otool_cosmo (COSMO solvation model)
   Jiri Pittner, Ondrej Demel                    : Mk-CCSD
   Frank Weinhold                                : gennbo (NPA and NBO analysis)
   Christopher J. Cramer and Donald G. Truhlar   : smd solvation model


 Your calculation uses the libint2 library for the computation of 2-el integrals
 For citations please refer to: http://libint.valeyev.net

 This ORCA versions uses:
   CBLAS   interface :  Fast vector & matrix operations
   LAPACKE interface :  Fast linear algebra routines
   SCALAPACK package :  Parallel linear algebra routines




*****************************************
The coordinations will be read from file: H4O4W.xyz
*****************************************


Your calculation utilizes the basis: def2-TZVP
   F. Weigend and R. Ahlrichs, Phys. Chem. Chem. Phys. 7, 3297 (2005).

Your calculation utilizes the auxiliary basis: def2/J
   F. Weigend, Phys. Chem. Chem. Phys. 8, 1057 (2006).

cite the ECPs for W  [Def2-ECP] as follows:
Ce-Yb(ecp-28): M. Dolg, H. Stoll, H.Preuss, J. Chem. Phys., 1989, 90, 1730-1734.
Y-Cd(ecp-28), Hf-Hg(ecp-46): D. Andrae,U. Haeussermann, M. Dolg, H. Stoll, H. Preuss, Theor. Chim. Acta, 1990, 77, 123-141.
In-Sb(ecp-28), Tl-Bi(ecp-46): B. Metz, H. Stoll, M. Dolg, J. Chem. Phys., 2000, 113, 2563-2569.
Te-Xe(ecp-28), Po-Rn(ecp-46): K. A. Peterson, D. Figgen, E. Goll, H. Stoll, M. Dolg, J. Chem. Phys., 2003, 119, 11113-11123.
Rb(ecp-28), Cs(ecp-46): T. Leininger, A. Nicklass, W. Kuechle, H. Stoll, M. Dolg, A. Bergner, Chem. Phys. Lett., 1996, 255, 274-280.
Sr(ecp-28), Ba(ecp-46): M. Kaupp, P. V. Schleyer, H. Stoll and H. Preuss, J. Chem. Phys., 1991, 94, 1360-1366.
La(ecp-46): M. Dolg, H. Stoll, A. Savin, H. Preuss, Theor. Chim. Acta, 1989, 75, 173-194.
Lu(ecp-28): X. Cao, M. Dolg, J. Chem. Phys., 2001, 115, 7348-7355.

ECP parameters for W  [Def2-ECP] have been obtained from:
TURBOMOLE (7.0.2)

================================================================================
                                        WARNINGS
                       Please study these warnings very carefully!
================================================================================

Warning: TCutStore was < 0. Adjusted to Thresh (uncritical)

WARNING: Geometry Optimization
  ===> : Switching off AutoStart
         For restart on a previous wavefunction, please use MOREAD

INFO   : the flag for use of LIBINT has been found!

================================================================================
                                       INPUT FILE
================================================================================
NAME = opt.inp
|  1> # avogadro generated ORCA input file 
|  2> # Basic Mode
|  3> # 
|  4> ! PBE OPT def2-TZVP
|  5> 
|  6> * xyzfile 0 1 H4O4W.xyz
|  7> 
|  8> 
|  9>                          ****END OF INPUT****
================================================================================

                       *****************************
                       * Geometry Optimization Run *
                       *****************************

Geometry optimization settings:
Update method            Update   .... BFGS
Choice of coordinates    CoordSys .... Redundant Internals
Initial Hessian          InHess   .... Almoef's Model

Convergence Tolerances:
Energy Change            TolE     ....  5.0000e-06 Eh
Max. Gradient            TolMAXG  ....  3.0000e-04 Eh/bohr
RMS Gradient             TolRMSG  ....  1.0000e-04 Eh/bohr
Max. Displacement        TolMAXD  ....  4.0000e-03 bohr
RMS Displacement         TolRMSD  ....  2.0000e-03 bohr

------------------------------------------------------------------------------
                        ORCA OPTIMIZATION COORDINATE SETUP
------------------------------------------------------------------------------

The optimization will be done in new redundant internal coordinates
Making redundant internal coordinates   ...  (new redundants) done
Evaluating the initial hessian          ...  (Almloef) done
Evaluating the coordinates              ...  done
Calculating the B-matrix                .... done
Calculating the G-matrix                .... done
Diagonalizing the G-matrix              .... done
The first mode is                       ....   33
The number of degrees of freedom        ....   21

    -----------------------------------------------------------------
                    Redundant Internal Coordinates


    -----------------------------------------------------------------
         Definition                    Initial Value    Approx d2E/dq
    -----------------------------------------------------------------
      1. B(O   1,W   0)                  2.2319         0.059112   
      2. B(H   2,O   1)                  0.9500         0.539410   
      3. B(O   3,W   0)                  2.1244         0.087721   
      4. B(H   4,O   3)                  0.9500         0.539409   
      5. B(O   5,W   0)                  2.2937         0.047104   
      6. B(O   5,H   4)                  2.7292         0.000782   
      7. B(H   6,O   5)                  0.9500         0.539419   
      8. B(H   6,W   0)                  2.7597         0.001817   
      9. B(O   7,H   6)                  2.9759         0.000316   
     10. B(O   7,W   0)                  2.4027         0.031555   
     11. B(H   8,H   2)                  2.7913         0.000133   
     12. B(H   8,O   1)                  3.0791         0.000216   
     13. B(H   8,O   7)                  0.9500         0.539410   
     14. B(H   8,W   0)                  2.8631         0.001243   
     15. A(O   1,W   0,H   6)          161.4250         0.142422   
     16. A(O   5,W   0,O   7)           88.9507         0.197735   
     17. A(O   1,W   0,O   3)           92.0355         0.233276   
     18. A(O   3,W   0,H   6)          106.5395         0.147415   
     19. A(H   6,W   0,O   7)           70.0125         0.135347   
     20. A(O   1,W   0,O   7)           91.4125         0.203470   
     21. A(O   3,W   0,O   5)           87.6013         0.226048   
     22. A(O   5,W   0,H   6)           18.9382         0.139746   
     23. A(W   0,O   1,H   2)          109.4713         0.265738   
     24. A(W   0,O   3,H   4)          109.4714         0.282255   
     25. A(O   3,H   4,O   5)          101.2934         0.142926   
     26. A(W   0,O   5,H   4)           61.6339         0.127242   
     27. A(H   4,O   5,H   6)          171.1051         0.142927   
     28. A(W   0,O   5,H   6)          109.4712         0.256884   
     29. A(W   0,H   6,O   5)           51.5906         0.160559   
     30. A(W   0,O   7,H   8)          109.4707         0.242331   
     31. D(H   2,O   1,W   0,O   3)    135.1548         0.001594   
     32. D(H   2,O   1,W   0,H   6)    -44.8452         0.001594   
     33. D(H   2,O   1,W   0,O   7)    -44.8452         0.001594   
     34. D(H   4,O   3,W   0,O   5)      0.0000         0.001690   
     35. D(H   4,O   3,W   0,H   6)      0.0000         0.001690   
     36. D(H   4,O   3,W   0,O   1)    180.0000         0.001690   
     37. D(O   5,H   4,O   3,W   0)      0.0000         0.335137   
     38. D(H   4,O   5,O   1,H   2)    135.1088         0.001500   
     39. D(H   6,O   5,O   1,H   2)    -44.8912         0.001500   
     40. D(H   4,O   5,W   0,O   7)    180.0000         0.001560   
     41. D(H   4,O   5,W   0,H   6)    180.0000         0.001560   
     42. D(H   4,O   5,W   0,O   3)      0.0000         0.001560   
     43. D(H   6,O   5,W   0,O   7)      0.0000         0.001560   
     44. D(H   6,O   5,H   4,O   3)      0.0000         0.001500   
     45. D(H   6,O   5,W   0,O   3)    180.0000         0.001560   
     46. D(W   0,O   5,H   4,O   3)      0.0000         0.001500   
     47. D(W   0,H   6,O   5,H   4)      0.0000         0.421905   
     48. D(O   5,H   6,W   0,O   7)    180.0000         0.001501   
     49. D(O   5,H   6,W   0,O   3)      0.0000         0.001501   
     50. D(O   5,H   6,W   0,O   1)    180.0000         0.001501   
     51. D(H   8,O   7,O   3,H   4)    180.0000         0.001500   
     52. D(H   8,O   7,W   0,H   6)    180.0000         0.001528   
     53. D(H   8,O   7,W   0,O   5)    180.0000         0.001528   
     54. D(H   8,O   7,W   0,O   1)      0.0000         0.001528   
    -----------------------------------------------------------------

Number of atoms                         .... 9
Number of degrees of freedom            .... 54

         *************************************************************
         *                GEOMETRY OPTIMIZATION CYCLE   1            *
         *************************************************************
---------------------------------
CARTESIAN COORDINATES (ANGSTROEM)
---------------------------------
  W     -0.846490    0.631020   -0.000000
  O     -0.815710   -1.600640   -0.000000
  H     -0.176360   -1.908520   -0.631620
  O     -2.970410    0.677190   -0.000000
  H     -3.267540    1.579530    0.000000
  O     -0.892660    2.924240   -0.000000
  H     -0.003550    3.258870   -0.000000
  O      1.554470    0.723370   -0.000000
  H      1.905320   -0.159470   -0.000000

----------------------------
CARTESIAN COORDINATES (A.U.)
----------------------------
  NO LB      ZA    FRAG     MASS         X           Y           Z
   0 W    14.0000*   0   183.850   -1.599634    1.192455   -0.000000
   1 O     8.0000    0    15.999   -1.541469   -3.024771   -0.000000
   2 H     1.0000    0     1.008   -0.333272   -3.606580   -1.193589
   3 O     8.0000    0    15.999   -5.613261    1.279704   -0.000000
   4 H     1.0000    0     1.008   -6.174756    2.984879    0.000000
   5 O     8.0000    0    15.999   -1.686883    5.526013   -0.000000
   6 H     1.0000    0     1.008   -0.006709    6.158372   -0.000000
   7 O     8.0000    0    15.999    2.937523    1.366971   -0.000000
   8 H     1.0000    0     1.008    3.600533   -0.301355   -0.000000
* core charge reduced due to ECP

--------------------------------
INTERNAL COORDINATES (ANGSTROEM)
--------------------------------
 W      0   0   0     0.000000000000     0.00000000     0.00000000
 O      1   0   0     2.231872255305     0.00000000     0.00000000
 H      2   1   0     0.950001232262   109.47128396     0.00000000
 O      1   2   3     2.124421764928    92.03550321   135.15484291
 H      4   1   2     0.950001953945   109.47141470   180.00000000
 O      1   2   3     2.293684729273   179.63680242   135.15484291
 H      6   1   4     0.949996752100   109.47119234   180.00000000
 O      1   2   3     2.402735408675    91.41252891   315.15484291
 H      8   1   2     0.950001151631   109.47067237     0.00000000

---------------------------
INTERNAL COORDINATES (A.U.)
---------------------------
 W      0   0   0     0.000000000000     0.00000000     0.00000000
 O      1   0   0     4.217627328424     0.00000000     0.00000000
 H      2   1   0     1.795242155864   109.47128396     0.00000000
 O      1   2   3     4.014575328656    92.03550321   135.15484291
 H      4   1   2     1.795243519647   109.47141470   180.00000000
 O      1   2   3     4.334435975883   179.63680242   135.15484291
 H      6   1   4     1.795233689583   109.47119234   180.00000000
 O      1   2   3     4.540511894671    91.41252891   315.15484291
 H      8   1   2     1.795242003492   109.47067237     0.00000000

---------------------
BASIS SET INFORMATION
---------------------
There are 3 groups of distinct atoms

 Group   1 Type W   : 8s7p6d1f contracted to 6s4p3d1f pattern {311111/4111/411/1}
 Group   2 Type O   : 11s6p2d1f contracted to 5s3p2d1f pattern {62111/411/11/1}
 Group   3 Type H   : 5s1p contracted to 3s1p pattern {311/1}

Atom   0W    basis set group =>   1
Atom   1O    basis set group =>   2
Atom   2H    basis set group =>   3
Atom   3O    basis set group =>   2
Atom   4H    basis set group =>   3
Atom   5O    basis set group =>   2
Atom   6H    basis set group =>   3
Atom   7O    basis set group =>   2
Atom   8H    basis set group =>   3
-------------------------------
AUXILIARY BASIS SET INFORMATION
-------------------------------
There are 3 groups of distinct atoms

 Group   1 Type W   : 11s5p5d3f3g contracted to 8s5p5d2f3g pattern {41111111/11111/11111/21/111}
 Group   2 Type O   : 12s5p4d2f1g contracted to 6s4p3d1f1g pattern {711111/2111/211/2/1}
 Group   3 Type H   : 5s2p1d contracted to 3s1p1d pattern {311/2/1}

Atom   0W    basis set group =>   1
Atom   1O    basis set group =>   2
Atom   2H    basis set group =>   3
Atom   3O    basis set group =>   2
Atom   4H    basis set group =>   3
Atom   5O    basis set group =>   2
Atom   6H    basis set group =>   3
Atom   7O    basis set group =>   2
Atom   8H    basis set group =>   3
-------------------------
ECP PARAMETER INFORMATION
-------------------------

 Group 1, Type W  ECP Def2-ECP (replacing 60 core electrons, lmax=3)

Atom   0W    ECP group =>   1

------------------------------------------------------------------------------
                           ORCA GTO INTEGRAL CALCULATION
                           -- RI-GTO INTEGRALS CHOSEN --
------------------------------------------------------------------------------

                         BASIS SET STATISTICS AND STARTUP INFO

Gaussian basis set:
 # of primitive gaussian shells          ...  126
 # of primitive gaussian functions       ...  282
 # of contracted shells                  ...   74
 # of contracted basis functions         ...  188
 Highest angular momentum                ...    3
 Maximum contraction depth               ...    6
Auxiliary gaussian basis set:
 # of primitive gaussian shells          ...  155
 # of primitive gaussian functions       ...  443
 # of contracted shells                  ...  103
 # of contracted aux-basis functions     ...  329
 Highest angular momentum                ...    4
 Maximum contraction depth               ...    7
Ratio of auxiliary to basis functions    ...  1.75
Integral package used                  ... LIBINT
 One Electron integrals                  
   ECP integrals                         ... done
 Ordering auxiliary basis shells         ... done
 Integral threshhold             Thresh  ...  2.500e-11
 Primitive cut-off               TCut    ...  2.500e-12
 Pre-screening matrix                    ... done
 Shell pair data                         ... 
 Ordering of the shell pairs             ... done (   0.000 sec) 2434 of 2775 pairs
 Determination of significant pairs      ... done (   0.000 sec)
 Creation of shell pair data             ... done (   0.001 sec)
 Storage of shell pair data              ... done (   0.005 sec)
 Shell pair data done in (   0.006 sec)
 Computing two index integrals           ... done
 Cholesky decomposition of the V-matrix  ... done


Timings:
 Total evaluation time                   ...   0.699 sec (  0.012 min)
 One electron matrix time                ...   0.468 sec (  0.008 min) = 67.0%
 Schwartz matrix evaluation time         ...   0.185 sec (  0.003 min) = 26.4%
 Two index repulsion integral time       ...   0.008 sec (  0.000 min) =  1.2%
 Cholesky decomposition of V             ...   0.008 sec (  0.000 min) =  1.1%
 Three index repulsion integral time     ...   0.000 sec (  0.000 min) =  0.0%

-------------------------------------------------------------------------------
                                 ORCA SCF
-------------------------------------------------------------------------------

------------
SCF SETTINGS
------------
Hamiltonian:
 Density Functional     Method          .... DFT(GTOs)
 Exchange Functional    Exchange        .... PBE
   PBE kappa parameter   XKappa         ....  0.804000
   PBE mue parameter    XMuePBE         ....  0.219520
 Correlation Functional Correlation     .... PBE
   PBE beta parameter  CBetaPBE         ....  0.066725
 LDA part of GGA corr.  LDAOpt          .... PW91-LDA
 Gradients option       PostSCFGGA      .... off
   NL short-range parameter             ....  6.400000
 RI-approximation to the Coulomb term is turned on
   Number of auxiliary basis functions  .... 329


General Settings:
 Integral files         IntName         .... opt
 Hartree-Fock type      HFTyp           .... RHF
 Total Charge           Charge          ....    0
 Multiplicity           Mult            ....    1
 Number of Electrons    NEL             ....   50
 Basis Dimension        Dim             ....  188
 Nuclear Repulsion      ENuc            ....    205.1063354055 Eh

Convergence Acceleration:
 DIIS                   CNVDIIS         .... on
   Start iteration      DIISMaxIt       ....    12
   Startup error        DIISStart       ....  0.200000
   # of expansion vecs  DIISMaxEq       ....     5
   Bias factor          DIISBfac        ....   1.050
   Max. coefficient     DIISMaxC        ....  10.000
 Newton-Raphson         CNVNR           .... off
 SOSCF                  CNVSOSCF        .... off
 Level Shifting         CNVShift        .... on
   Level shift para.    LevelShift      ....    0.2500
   Turn off err/grad.   ShiftErr        ....    0.0010
 Zerner damping         CNVZerner       .... off
 Static damping         CNVDamp         .... on
   Fraction old density DampFac         ....    0.7000
   Max. Damping (<1)    DampMax         ....    0.9800
   Min. Damping (>=0)   DampMin         ....    0.0000
   Turn off err/grad.   DampErr         ....    0.1000
 Fernandez-Rico         CNVRico         .... off

SCF Procedure:
 Maximum # iterations   MaxIter         ....   125
 SCF integral mode      SCFMode         .... Direct
   Integral package                     .... LIBINT
 Reset frequeny         DirectResetFreq ....    20
 Integral Threshold     Thresh          ....  2.500e-11 Eh
 Primitive CutOff       TCut            ....  2.500e-12 Eh

Convergence Tolerance:
 Convergence Check Mode ConvCheckMode   .... Total+1el-Energy
 Convergence forced     ConvForced      .... 0
 Energy Change          TolE            ....  1.000e-08 Eh
 1-El. energy change                    ....  1.000e-05 Eh
 DIIS Error             TolErr          ....  5.000e-07


Diagonalization of the overlap matrix:
Smallest eigenvalue                        ... 3.968e-03
Time for diagonalization                   ...    0.007 sec
Threshold for overlap eigenvalues          ... 1.000e-08
Number of eigenvalues below threshold      ... 0
Time for construction of square roots      ...    0.005 sec
Total time needed                          ...    0.012 sec

-------------------
DFT GRID GENERATION
-------------------

General Integration Accuracy     IntAcc      ...  4.340
Radial Grid Type                 RadialGrid  ... Gauss-Chebyshev
Angular Grid (max. acc.)         AngularGrid ... Lebedev-110
Angular grid pruning method      GridPruning ... 3 (G Style)
Weight generation scheme         WeightScheme... Becke
Basis function cutoff            BFCut       ...    1.0000e-11
Integration weight cutoff        WCut        ...    1.0000e-14
Grids for H and He will be reduced by one unit

# of grid points (after initial pruning)     ...  13570 (   0.0 sec)
# of grid points (after weights+screening)   ...  13207 (   0.0 sec)
nearest neighbour list constructed           ...    0.0 sec
Grid point re-assignment to atoms done       ...    0.0 sec
Grid point division into batches done        ...    0.0 sec
Reduced shell lists constructed in    0.2 sec

Total number of grid points                  ...    13207
Total number of batches                      ...      210
Average number of points per batch           ...       62
Average number of grid points per atom       ...     1467
Average number of shells per batch           ...    45.70 (61.75%)
Average number of basis functions per batch  ...   116.60 (62.02%)
Average number of large shells per batch     ...    35.57 (77.85%)
Average number of large basis fcns per batch ...    91.04 (78.08%)
Maximum spatial batch extension              ...  40.43, 27.45, 30.39 au
Average spatial batch extension              ...   4.56,  4.44,  5.39 au

Time for grid setup =    0.235 sec

------------------------------
INITIAL GUESS: MODEL POTENTIAL
------------------------------
Loading Hartree-Fock densities                     ... done
  calling orca opt_atom74.inp > opt_atom74.out in order to generate an atomic fitting density for atom 0 (W  with ECP) on-the-fly... 
    atom 0 (W ), assumed electronic state with S=5: 1s2 2s2 2p6 3s2 3p6 4s2 3d10 4p6 5s2 4d10 5p6 6s2 4f14 5d4           ... done
Calculating cut-offs                               ... done
Setting up the integral package                    ... done
Initializing the effective Hamiltonian             ... done
Starting the Coulomb interaction                   ... done (   0.1 sec)
Reading the grid                                   ... done
Mapping shells                                     ... done
Starting the XC term evaluation                    ... done (   0.3 sec)
  promolecular density results
     # of electrons  =    110.000924616
     EX              =   -358.425984270
     EC              =     -5.595240367
     EX+EC           =   -364.021224637
Transforming the Hamiltonian                       ... done (   0.0 sec)
Diagonalizing the Hamiltonian                      ... done (   0.0 sec)
Back transforming the eigenvectors                 ... done (   0.0 sec)
Now organizing SCF variables                       ... done
                      ------------------
                      INITIAL GUESS DONE (   2.0 sec)
                      ------------------
--------------
SCF ITERATIONS
--------------
ITER       Energy         Delta-E        Max-DP      RMS-DP      [F,P]     Damp
               ***  Starting incremental Fock matrix formation  ***
  0   -369.1341485573   0.000000000000 0.45663815  0.00718086  0.6826576 0.7000
  1   -369.7899312134  -0.655782656049 0.22765773  0.00421157  0.2606784 0.7000
                               ***Turning on DIIS***
  2   -369.8239978445  -0.034066631098 0.10029176  0.00218791  0.1626061 0.7000
  3   -369.9293399528  -0.105342108385 0.12014152  0.00213764  0.1119593 0.7000
  4   -370.0214421517  -0.092102198828 0.25928684  0.00532426  0.0820938 0.0000
  5   -370.1989849391  -0.177542787393 0.06883870  0.00094731  0.0651199 0.0000
  6   -370.2154448710  -0.016459931922 0.03459639  0.00050923  0.0207900 0.0000
  7   -370.2179875520  -0.002542680978 0.01918078  0.00029739  0.0133074 0.0000
  8   -370.2188965758  -0.000909023802 0.00666030  0.00014890  0.0071999 0.0000
  9   -370.2191630151  -0.000266439341 0.00402248  0.00009706  0.0034683 0.0000
 10   -370.2192678988  -0.000104883653 0.00272531  0.00006550  0.0016387 0.0000
 11   -370.2193077935  -0.000039894721 0.00272707  0.00004812  0.0013604 0.0000
 12   -370.2193364188  -0.000028625341 0.00263002  0.00004219  0.0012033 0.0000
 13   -370.2193563663  -0.000019947434 0.00243389  0.00003252  0.0011448 0.0000
 14   -370.2193721769  -0.000015810668 0.00244335  0.00003038  0.0011079 0.0000
 15   -370.2193864820  -0.000014305117 0.00222430  0.00002757  0.0010350 0.0000
 16   -370.2193983037  -0.000011821707 0.27777706  0.00405719  0.0009996 0.0000
 17   -370.2027342391   0.016664064684 0.00015797  0.00000221  0.0388606 0.0000
 18   -370.2027552704  -0.000021031331 0.00018243  0.00000256  0.0388102 0.0000
 19   -370.2027626772  -0.000007406778 0.00009605  0.00000163  0.0388665 0.0000
               *** Restarting incremental Fock matrix formation ***
                                   *** Resetting DIIS ***
 20   -370.2027745120  -0.000011834827 0.07493876  0.00102456  0.0388721 0.0000
 21   -370.2105035198  -0.007729007840 0.04034835  0.00058171  0.0280820 0.0000
 22   -370.2142633303  -0.003759810493 0.02565991  0.00040662  0.0127319 0.0000
 23   -370.2159247488  -0.001661418493 0.01600199  0.00027491  0.0084820 0.0000
 24   -370.2168865480  -0.000961799213 0.01120400  0.00020139  0.0075513 0.0000
 25   -370.2174802859  -0.000593737867 0.00812400  0.00014745  0.0061658 0.0000
 26   -370.2178379138  -0.000357627918 0.00998330  0.00014938  0.0060807 0.0000
 27   -370.2181651825  -0.000327268714 0.00609976  0.00011080  0.0049988 0.0000
 28   -370.2183661018  -0.000200919271 0.00718909  0.00010726  0.0048312 0.0000
 29   -370.2185585173  -0.000192415459 0.00547601  0.00009828  0.0042485 0.0000
 30   -370.2186951213  -0.000136604031 0.00634204  0.00008936  0.0040979 0.0000
 31   -370.2188273388  -0.000132217459 0.00561175  0.00007963  0.0034963 0.0000
 32   -370.2189368664  -0.000109527648 0.00373207  0.00006360  0.0030947 0.0000
 33   -370.2190096442  -0.000072777839 0.00567538  0.00007505  0.0030845 0.0000
 34   -370.2190868451  -0.000077200825 0.00504380  0.00007026  0.0025376 0.0000
 35   -370.2191565227  -0.000069677625 0.00338442  0.00005386  0.0021811 0.0000
 36   -370.2192034588  -0.000046936124 0.00385986  0.00005192  0.0021565 0.0000
 37   -370.2192481313  -0.000044672433 0.00369798  0.00004991  0.0019305 0.0000
 38   -370.2192850035  -0.000036872253 0.00331338  0.00004553  0.0017173 0.0000
 39   -370.2193168098  -0.000031806268 0.00217075  0.00003628  0.0015625 0.0000
               *** Restarting incremental Fock matrix formation ***
                                   *** Resetting DIIS ***
 40   -370.2193394207  -0.000022610907 0.00325887  0.00004241  0.0016313 0.0000
 41   -370.2193596451  -0.000020224420 0.00292763  0.00003923  0.0013569 0.0000
 42   -370.2193835555  -0.000023910375 0.00258921  0.00003439  0.0011855 0.0000
 43   -370.2194012033  -0.000017647865 0.00220965  0.00002985  0.0010719 0.0000
 44   -370.2194153484  -0.000014145106 0.00133573  0.00002412  0.0010136 0.0000
 45   -370.2194234842  -0.000008135717 0.00209057  0.00002563  0.0011840 0.0000
 46   -370.2194345534  -0.000011069237 0.14171447  0.00163721  0.0009941 0.0000
 47   -370.2184165316   0.001018021820 0.00043003  0.00000718  0.0168037 0.0000
 48   -370.2184436561  -0.000027124565 0.00016976  0.00000319  0.0160904 0.0000
 49   -370.2184381759   0.000005480262 0.00030643  0.00000598  0.0164457 0.0000
 50   -370.2184183911   0.000019784797 0.00012951  0.00000234  0.0170771 0.0000
 51   -370.2184122885   0.000006102636 0.01218050  0.00017386  0.0171402 0.0000
 52   -370.2188130188  -0.000400730318 0.00661133  0.00009685  0.0030065 0.0000
 53   -370.2189019320  -0.000088913180 0.00541542  0.00006906  0.0031803 0.0000
 54   -370.2189974353  -0.000095503335 0.00452766  0.00005832  0.0021376 0.0000
 55   -370.2190529065  -0.000055471208 0.00383601  0.00005041  0.0018402 0.0000
 56   -370.2190957163  -0.000042809763 0.00364380  0.00004704  0.0018531 0.0000
 57   -370.2191317348  -0.000036018518 0.00391714  0.00004674  0.0018285 0.0000
 58   -370.2191665917  -0.000034856905 0.00300363  0.00004022  0.0016895 0.0000
 59   -370.2191949435  -0.000028351861 0.00346715  0.00004145  0.0017597 0.0000
               *** Restarting incremental Fock matrix formation ***
                                   *** Resetting DIIS ***
 60   -370.2192227194  -0.000027775829 0.00354278  0.00004190  0.0016371 0.0000
 61   -370.2192480537  -0.000025334355 0.00340036  0.00003993  0.0014933 0.0000
 62   -370.2192735430  -0.000025489256 0.00327209  0.00003859  0.0013763 0.0000
 63   -370.2192961647  -0.000022621694 0.00323209  0.00003789  0.0012775 0.0000
 64   -370.2193169334  -0.000020768687 0.00329149  0.00003805  0.0013548 0.0000
 65   -370.2193360539  -0.000019120555 0.00308637  0.00003648  0.0015857 0.0000
 66   -370.2193535771  -0.000017523168 0.00300462  0.00003545  0.0016658 0.0000
 67   -370.2193694805  -0.000015903382 0.00295114  0.00003464  0.0018017 0.0000
 68   -370.2193840970  -0.000014616577 0.00285961  0.00003364  0.0019794 0.0000
 69   -370.2193971824  -0.000013085368 0.00286221  0.00003345  0.0021178 0.0000
 70   -370.2194089289  -0.000011746497 0.00298735  0.00003509  0.0023746 0.0000
 71   -370.2194184439  -0.000009514962 0.00225248  0.00002931  0.0028571 0.0000
 72   -370.2194294356  -0.000010991732 0.00173329  0.00002483  0.0022166 0.0000
 73   -370.2194418053  -0.000012369662 0.00142814  0.00002247  0.0012700 0.0000
 74   -370.2194503532  -0.000008547933 0.20447400  0.00270869  0.0006653 0.0000
 75   -370.2134035084   0.006046844825 0.00010190  0.00000130  0.0219786 0.0000
 76   -370.2134132589  -0.000009750535 0.00030619  0.00000444  0.0219370 0.0000
 77   -370.2133826932   0.000030565709 0.00052276  0.00000672  0.0219851 0.0000
 78   -370.2133335850   0.000049108151 0.00040793  0.00000843  0.0221866 0.0000
 79   -370.2133248022   0.000008782814 0.03538866  0.00056356  0.0220914 0.0000
               *** Restarting incremental Fock matrix formation ***
                                   *** Resetting DIIS ***
 80   -370.2160461413  -0.002721339049 0.01615636  0.00030966  0.0134643 0.0000
 81   -370.2165302087  -0.000484067427 0.01345411  0.00024353  0.0202637 0.0000
 82   -370.2176802171  -0.001150008436 0.01115192  0.00017399  0.0060015 0.0000
 83   -370.2180807475  -0.000400530380 0.00782189  0.00013411  0.0052250 0.0000
 84   -370.2183615210  -0.000280773513 0.00586504  0.00010418  0.0046214 0.0000
 85   -370.2185432242  -0.000181703188 0.00778423  0.00010851  0.0044569 0.0000
 86   -370.2187162386  -0.000173014333 0.00450506  0.00008020  0.0037103 0.0000
 87   -370.2188146718  -0.000098433216 0.00658115  0.00008747  0.0037222 0.0000
 88   -370.2189335490  -0.000118877196 0.00448052  0.00007273  0.0031254 0.0000
 89   -370.2190169508  -0.000083401829 0.00477610  0.00006725  0.0029556 0.0000
 90   -370.2190892220  -0.000072271181 0.00435203  0.00006003  0.0026540 0.0000
 91   -370.2191503425  -0.000061120501 0.00478745  0.00006156  0.0024080 0.0000
 92   -370.2192050562  -0.000054713714 0.00356013  0.00005122  0.0020558 0.0000
 93   -370.2192479038  -0.000042847573 0.00392758  0.00005330  0.0019525 0.0000
 94   -370.2192870884  -0.000039184660 0.00296501  0.00004286  0.0016869 0.0000
 95   -370.2193172642  -0.000030175754 0.00227558  0.00003535  0.0016160 0.0000
 96   -370.2193389610  -0.000021696818 0.00332406  0.00004111  0.0016529 0.0000
 97   -370.2193631020  -0.000024141013 0.00185050  0.00003152  0.0013750 0.0000
 98   -370.2193781680  -0.000015066018 0.00279199  0.00003433  0.0014603 0.0000
 99   -370.2193960578  -0.000017889750 0.00270041  0.00003302  0.0012121 0.0000
               *** Restarting incremental Fock matrix formation ***
                                   *** Resetting DIIS ***
100   -370.2194117616  -0.000015703815 0.00199234  0.00002795  0.0010326 0.0000
101   -370.2194238242  -0.000012062607 0.15836416  0.00182508  0.0009971 0.0000
102   -370.2181084897   0.001315334496 0.00020904  0.00000310  0.0194329 0.0000
103   -370.2180937166   0.000014773064 0.00015021  0.00000179  0.0197813 0.0000
104   -370.2180872075   0.000006509101 0.00013343  0.00000160  0.0198410 0.0000
105   -370.2180826068   0.000004600782 0.00031033  0.00000629  0.0198686 0.0000
106   -370.2180888106  -0.000006203874 0.01394201  0.00020698  0.0195104 0.0000
107   -370.2186023195  -0.000513508874 0.00756790  0.00012564  0.0033926 0.0000
108   -370.2187228950  -0.000120575448 0.00595510  0.00007862  0.0040197 0.0000
109   -370.2188569446  -0.000134049593 0.00507452  0.00006687  0.0024041 0.0000
110   -370.2189314622  -0.000074517670 0.00433149  0.00005791  0.0020469 0.0000
111   -370.2189854298  -0.000053967566 0.00397176  0.00005175  0.0020298 0.0000
112   -370.2190300540  -0.000044624179 0.00433659  0.00005255  0.0020339 0.0000
113   -370.2190738776  -0.000043823621 0.00309635  0.00004379  0.0018813 0.0000
114   -370.2191072740  -0.000033396406 0.00416736  0.00004863  0.0020229 0.0000
115   -370.2191435282  -0.000036254224 0.00328384  0.00004237  0.0017937 0.0000
116   -370.2191739700  -0.000030441822 0.00330675  0.00004021  0.0018131 0.0000
117   -370.2192016970  -0.000027726912 0.00329082  0.00003957  0.0017602 0.0000
118   -370.2192284256  -0.000026728633 0.00279508  0.00003535  0.0016758 0.0000
119   -370.2192505787  -0.000022153097 0.00343171  0.00003894  0.0016897 0.0000
               *** Restarting incremental Fock matrix formation ***
                                   *** Resetting DIIS ***
120   -370.2192747147  -0.000024136003 0.00319838  0.00003718  0.0014967 0.0000
121   -370.2192962580  -0.000021543271 0.00310151  0.00003594  0.0013795 0.0000
122   -370.2193164587  -0.000020200745 0.00295695  0.00003465  0.0012735 0.0000
123   -370.2193348844  -0.000018425686 0.00284501  0.00003345  0.0011858 0.0000
124   -370.2193517837  -0.000016899354 0.00272587  0.00003220  0.0011220 0.0000

               *****************************************************
               *                      ERROR                        *
               *        SCF NOT CONVERGED AFTER 125 CYCLES         *
               *****************************************************

Setting up the final grid:

General Integration Accuracy     IntAcc      ...  4.670
Radial Grid Type                 RadialGrid  ... Gauss-Chebyshev
Angular Grid (max. acc.)         AngularGrid ... Lebedev-302
Angular grid pruning method      GridPruning ... 3 (G Style)
Weight generation scheme         WeightScheme... Becke
Basis function cutoff            BFCut       ...    1.0000e-11
Integration weight cutoff        WCut        ...    1.0000e-14
Grids for H and He will be reduced by one unit

# of grid points (after initial pruning)     ...  50076 (   0.0 sec)
# of grid points (after weights+screening)   ...  48296 (   0.0 sec)
nearest neighbour list constructed           ...    0.0 sec
Grid point re-assignment to atoms done       ...    0.0 sec
Grid point division into batches done        ...    0.2 sec
Reduced shell lists constructed in    0.9 sec

Total number of grid points                  ...    48296
Total number of batches                      ...      759
Average number of points per batch           ...       63
Average number of grid points per atom       ...     5366
Average number of shells per batch           ...    41.16 (55.63%)
Average number of basis functions per batch  ...   104.39 (55.52%)
Average number of large shells per batch     ...    31.39 (76.26%)
Average number of large basis fcns per batch ...    79.52 (76.18%)
Maximum spatial batch extension              ...  31.96, 27.99, 28.60 au
Average spatial batch extension              ...   3.02,  3.00,  3.43 au

Final grid set up in    1.0 sec
Final integration                            ... done (   0.9 sec)
Change in XC energy                          ...     0.000865795
Integrated number of electrons               ...    50.000014684
Previous integrated no of electrons          ...    50.001998314

---------------
SCF CONVERGENCE
---------------

  Last Energy change         ...   -1.6899e-05  Tolerance :   1.0000e-08
  Last MAX-Density change    ...    2.7259e-03  Tolerance :   1.0000e-07
  Last RMS-Density change    ...    3.2197e-05  Tolerance :   5.0000e-09
  Last DIIS Error            ...    1.1220e-03  Tolerance :   5.0000e-07

             **** DENSITY FILE WAS UPDATED (opt.scfp.tmp) ****
             **** ENERGY FILE WAS UPDATED (opt.en.tmp) ****

     --------------------------------------------------------------------
                                      WARNING
     The wavefunction IS NOT YET CONVERGED! It shows however signs of
     convergence. Therefore the wavefunction will be stored and can be
     used as input for another calculation. 
     DO NOT USE THIS WAVEFUNCTION  FOR ANYHTING ELSE. It is NOT RELIABLE
     --------------------------------------------------------------------

-------
TIMINGS
-------

Total SCF time: 0 days 0 hours 1 min 30 sec 

Total time                  ....      90.639 sec
Sum of individual times     ....      88.236 sec  ( 97.3%)

Fock matrix formation       ....      81.669 sec  ( 90.1%)
  Split-RI-J                ....      43.275 sec  ( 53.0% of F)
  XC integration            ....      35.446 sec  ( 43.4% of F)
    Basis function eval.    ....      14.214 sec  ( 40.1% of XC)
    Density eval.           ....       6.217 sec  ( 17.5% of XC)
    XC-Functional eval.     ....       2.601 sec  (  7.3% of XC)
    XC-Potential eval.      ....       9.865 sec  ( 27.8% of XC)
Diagonalization             ....       1.493 sec  (  1.6%)
Density matrix formation    ....       0.051 sec  (  0.1%)
Population analysis         ....       0.000 sec  (  0.0%)
Initial guess               ....       1.786 sec  (  2.0%)
Orbital Transformation      ....       0.000 sec  (  0.0%)
Orbital Orthonormalization  ....       0.000 sec  (  0.0%)
DIIS solution               ....       2.019 sec  (  2.2%)
Grid generation             ....       1.217 sec  (  1.3%)

-------------------------   --------------------
FINAL SINGLE POINT ENERGY      -370.218485989119   (SCF not fully converged!)
-------------------------   --------------------

------------------------------------------------------------------------------
                         ORCA SCF GRADIENT CALCULATION
------------------------------------------------------------------------------

Gradient of the Kohn-Sham DFT energy:
Kohn-Sham wavefunction type      ... RKS
Hartree-Fock exchange scaling    ...    0.000
Number of operators              ...    1
Number of atoms                  ...    9
Basis set dimensions             ...  188
Integral neglect threshold       ... 2.5e-11
Integral primitive cutoff        ... 2.5e-12

Nuclear repulsion gradient       ... done
One Electron Gradient            
  ECP gradient                   ... done
Pre-screening matrix             ... done
RI-J gradient                    ... done
Exchange-correlation gradient    ... done

------------------
CARTESIAN GRADIENT
------------------

   1   W   :    0.011624996    0.004560324   -0.004127934
   2   O   :    0.014351219   -0.100921323   -0.016459133
   3   H   :   -0.017697540    0.011200803    0.019141552
   4   O   :   -0.096514011    0.025134028    0.000522628
   5   H   :    0.011130789   -0.027640132   -0.000590168
   6   O   :    0.020898190    0.098557715    0.002329788
   7   H   :   -0.027041844   -0.009313876   -0.000650200
   8   O   :    0.090605263   -0.026229384    0.001113818
   9   H   :   -0.007357063    0.024651844   -0.001280351

Difference to translation invariance:
           :   -0.0000000000    0.0000000000    0.0000000000

Norm of the cartesian gradient     ...    0.2073919211
RMS gradient                       ...    0.0399125938
MAX gradient                       ...    0.1009213227

-------
TIMINGS
-------

Total SCF gradient time            ...        6.145 sec

One electron gradient       ....       1.296 sec  ( 21.1%)
Prescreening matrices       ....       0.462 sec  (  7.5%)
RI-J Coulomb gradient       ....       1.048 sec  ( 17.1%)
XC gradient                 ....       3.117 sec  ( 50.7%)
------------------------------------------------------------------------------
                         ORCA GEOMETRY RELAXATION STEP
------------------------------------------------------------------------------

Reading the OPT-File                    .... done
Getting information on internals        .... done
Copying old internal coords+grads       .... done
Making the new internal coordinates     .... (new redundants).... done
Validating the new internal coordinates .... (new redundants).... done
Calculating the B-matrix                .... done
Calculating the G,G- and P matrices     .... done
Transforming gradient to internals      .... done
Projecting the internal gradient        .... done
Number of atoms                         ....   9
Number of internal coordinates          ....  54
Current Energy                          ....  -370.218485989 Eh
Current gradient norm                   ....     0.207391921 Eh/bohr
Maximum allowed component of the step   ....  0.300
Current trust radius                    ....  0.300
Evaluating the initial hessian          ....  (Almloef) done
Projecting the Hessian                  .... done
Forming the augmented Hessian           .... done
Diagonalizing the augmented Hessian     .... done
Last element of RFO vector              ....  0.781838423
Lowest eigenvalues of augmented Hessian:
 -0.118831856  0.001011258  0.001522423  0.001535801  0.001559906
Length of the computed step             ....  0.797455177
Warning: the length of the step is outside the trust region - taking restricted step instead
The input lambda is                     ....    -0.118832
   iter:   1  x=   -0.193013  g=    7.359524 f(x)=     0.545935
   iter:   2  x=   -0.285448  g=    2.456915 f(x)=     0.227107
   iter:   3  x=   -0.371612  g=    0.966582 f(x)=     0.083284
   iter:   4  x=   -0.417286  g=    0.502234 f(x)=     0.022939
   iter:   5  x=   -0.425610  g=    0.374272 f(x)=     0.003115
   iter:   6  x=   -0.425828  g=    0.355847 f(x)=     0.000078
   iter:   7  x=   -0.425828  g=    0.355381 f(x)=     0.000000
   iter:   8  x=   -0.425828  g=    0.355381 f(x)=     0.000000
   iter:   9  x=   -0.425828  g=    0.355381 f(x)=     0.000000
The output lambda is                    ....    -0.425828 (9 iterations)
The final length of the internal step   ....  0.300000000
Converting the step to cartesian space:
 Initial RMS(Int)=    0.0408248290
Transforming coordinates:
 Iter   0:  RMS(Cart)=    0.0669127808 RMS(Int)=    1.7098706471
 Iter   1:  RMS(Cart)=    0.0011258997 RMS(Int)=    0.0009259423
 Iter   2:  RMS(Cart)=    0.0000335316 RMS(Int)=    0.0000534023
 Iter   3:  RMS(Cart)=    0.0000024705 RMS(Int)=    0.0000074576
 Iter   4:  RMS(Cart)=    0.0000003867 RMS(Int)=    0.0000013327
 Iter   5:  RMS(Cart)=    0.0000000651 RMS(Int)=    0.0000002396
done
Storing new coordinates                 .... done

                                .--------------------.
          ----------------------|Geometry convergence|-------------------------
          Item                value                   Tolerance       Converged
          ---------------------------------------------------------------------
          RMS gradient        0.0213657114            0.0001000000      NO
          MAX gradient        0.0813031987            0.0003000000      NO
          RMS step            0.0408248290            0.0020000000      NO
          MAX step            0.1664398734            0.0040000000      NO
          ........................................................
          Max(Bonds)      0.0881      Max(Angles)    3.04
          Max(Dihed)        0.41      Max(Improp)    0.00
          ---------------------------------------------------------------------

The optimization has not yet converged - more geometry cycles are needed


    ---------------------------------------------------------------------------
                         Redundant Internal Coordinates
                            (Angstroem and degrees)

        Definition                    Value    dE/dq     Step     New-Value
    ----------------------------------------------------------------------------
     1. B(O   1,W   0)                2.2319  0.081303 -0.0881    2.1438   
     2. B(H   2,O   1)                0.9500 -0.027414  0.0150    0.9650   
     3. B(O   3,W   0)                2.1244  0.072452 -0.0737    2.0507   
     4. B(H   4,O   3)                0.9500 -0.019406  0.0108    0.9608   
     5. B(O   5,W   0)                2.2937  0.048276 -0.0493    2.2444   
     6. B(O   5,H   4)                2.7292  0.018963 -0.0245    2.7047   
     7. B(H   6,O   5)                0.9500 -0.025149  0.0153    0.9653   
     8. B(H   6,W   0)                2.7597  0.006862 -0.0135    2.7462   
     9. B(O   7,H   6)                2.9759  0.021001 -0.0269    2.9490   
    10. B(O   7,W   0)                2.4027  0.057213 -0.0596    2.3432   
    11. B(H   8,H   2)                2.7913  0.005568 -0.0075    2.7838   
    12. B(H   8,O   1)                3.0791  0.010794 -0.0142    3.0649   
    13. B(H   8,O   7)                0.9500 -0.023758  0.0145    0.9645   
    14. B(H   8,W   0)                2.8631  0.001681 -0.0079    2.8552   
    15. A(O   1,W   0,H   6)          161.43 -0.011567    1.20    162.63   
    16. A(O   5,W   0,O   7)           88.95 -0.006173    0.50     89.45   
    17. A(O   1,W   0,O   3)           92.04  0.027693   -2.67     89.37   
    18. A(O   3,W   0,H   6)          106.54 -0.016126    1.46    108.00   
    19. A(H   6,W   0,O   7)           70.01 -0.002913    0.30     70.32   
    20. A(O   1,W   0,O   7)           91.41 -0.008654    0.90     92.31   
    21. A(O   3,W   0,O   5)           87.60 -0.012867    1.27     88.87   
    22. A(O   5,W   0,H   6)           18.94 -0.003259    0.19     19.13   
    23. A(W   0,O   1,H   2)          109.47 -0.010930    0.96    110.43   
    24. A(W   0,O   3,H   4)          109.47 -0.011904    1.20    110.67   
    25. A(O   3,H   4,O   5)          101.29  0.022594   -2.13     99.16   
    26. A(W   0,O   5,H   4)           61.63  0.002177   -0.34     61.29   
    27. A(H   4,O   5,H   6)          171.11 -0.014299    1.47    172.58   
    28. A(W   0,O   5,H   6)          109.47 -0.016475    1.82    111.29   
    29. A(W   0,H   6,O   5)           51.59  0.019735   -2.01     49.58   
    30. A(W   0,O   7,H   8)          109.47 -0.026845    3.04    112.51   
    31. D(H   2,O   1,W   0,O   3)    135.15  0.000990   -0.18    134.97   
    32. D(H   2,O   1,W   0,H   6)    -44.85 -0.000871    0.09    -44.75   
    33. D(H   2,O   1,W   0,O   7)    -44.85  0.002615   -0.41    -45.25   
    34. D(H   4,O   3,W   0,O   5)      0.00 -0.000060    0.01      0.01   
    35. D(H   4,O   3,W   0,H   6)      0.00 -0.000080    0.01      0.01   
    36. D(H   4,O   3,W   0,O   1)    180.00 -0.000698    0.10    180.10   
    37. D(O   5,H   4,O   3,W   0)      0.00  0.000052   -0.01     -0.01   
    38. D(H   4,O   5,O   1,H   2)    135.11  0.002819   -0.35    134.76   
    39. D(H   6,O   5,O   1,H   2)    -44.89  0.002912   -0.36    -45.25   
    40. D(H   4,O   5,W   0,O   7)    180.00 -0.001641    0.23    180.23   
    41. D(H   4,O   5,W   0,H   6)    180.00 -0.000035    0.00    180.00   
    42. D(H   4,O   5,W   0,O   3)      0.00  0.000022   -0.00     -0.00   
    43. D(H   6,O   5,W   0,O   7)      0.00 -0.001606    0.22      0.22   
    44. D(H   6,O   5,H   4,O   3)      0.00  0.000161   -0.01     -0.01   
    45. D(H   6,O   5,W   0,O   3)    180.00  0.000057   -0.01    179.99   
    46. D(W   0,O   5,H   4,O   3)      0.00 -0.000051    0.01      0.01   
    47. D(W   0,H   6,O   5,H   4)      0.00 -0.000198    0.02      0.02   
    48. D(O   5,H   6,W   0,O   7)    180.00 -0.001709    0.24    180.24   
    49. D(O   5,H   6,W   0,O   3)      0.00  0.000060   -0.01     -0.01   
    50. D(O   5,H   6,W   0,O   1)    180.00  0.002000   -0.29    179.71   
    51. D(H   8,O   7,O   3,H   4)    180.00  0.001442   -0.20    179.80   
    52. D(H   8,O   7,W   0,H   6)    180.00  0.000371   -0.05    179.95   
    53. D(H   8,O   7,W   0,O   5)    180.00  0.000926   -0.13    179.87   
    54. D(H   8,O   7,W   0,O   1)      0.00  0.001553   -0.22     -0.22   
    ----------------------------------------------------------------------------

         *************************************************************
         *                GEOMETRY OPTIMIZATION CYCLE   2            *
         *************************************************************
---------------------------------
CARTESIAN COORDINATES (ANGSTROEM)
---------------------------------
  W     -0.838263    0.637535   -0.000325
  O     -0.852975   -1.506142    0.002675
  H     -0.216966   -1.848104   -0.637465
  O     -2.888975    0.629545    0.002625
  H     -3.231652    1.527130    0.000325
  O     -0.890459    2.881257   -0.006792
  H      0.000606    3.252505   -0.009035
  O      1.503588    0.715122    0.005435
  H      1.902168   -0.163258    0.010938

----------------------------
CARTESIAN COORDINATES (A.U.)
----------------------------
  NO LB      ZA    FRAG     MASS         X           Y           Z
   0 W    14.0000*   0   183.850   -1.584088    1.204766   -0.000615
   1 O     8.0000    0    15.999   -1.611890   -2.846196    0.005054
   2 H     1.0000    0     1.008   -0.410007   -3.492410   -1.204634
   3 O     8.0000    0    15.999   -5.459372    1.189668    0.004961
   4 H     1.0000    0     1.008   -6.106938    2.885857    0.000614
   5 O     8.0000    0    15.999   -1.682724    5.444787   -0.012836
   6 H     1.0000    0     1.008    0.001145    6.146343   -0.017074
   7 O     8.0000    0    15.999    2.841369    1.351384    0.010270
   8 H     1.0000    0     1.008    3.594576   -0.308512    0.020670
* core charge reduced due to ECP

--------------------------------
INTERNAL COORDINATES (ANGSTROEM)
--------------------------------
 W      0   0   0     0.000000000000     0.00000000     0.00000000
 O      1   0   0     2.143729306136     0.00000000     0.00000000
 H      2   1   0     0.964999607775   110.42031052     0.00000000
 O      1   2   3     2.050729857684    89.38344867   134.97987633
 H      4   1   2     0.960776210920   110.67219605   180.09844132
 O      1   2   3     2.244338838193   178.27205225   132.07963095
 H      6   1   4     0.965311613385   111.28588497   179.99287882
 O      1   2   3     2.343142653125    92.29057662   314.75413261
 H      8   1   2     0.964596604536   112.50985512   359.79039217

---------------------------
INTERNAL COORDINATES (A.U.)
---------------------------
 W      0   0   0     0.000000000000     0.00000000     0.00000000
 O      1   0   0     4.051061293858     0.00000000     0.00000000
 H      2   1   0     1.823584978036   110.42031052     0.00000000
 O      1   2   3     3.875317805678    89.38344867   134.97987633
 H      4   1   2     1.815603914626   110.67219605   180.09844132
 O      1   2   3     4.241185755907   178.27205225   132.07963095
 H      6   1   4     1.824174583191   111.28588497   179.99287882
 O      1   2   3     4.427897907116    92.29057662   314.75413261
 H      8   1   2     1.822823412283   112.50985512   359.79039217

 One Electron integrals                  ... done
 Pre-screening matrix                    ... done

Diagonalization of the overlap matrix:
Smallest eigenvalue                        ... 3.582e-03
Time for diagonalization                   ...    0.007 sec
Threshold for overlap eigenvalues          ... 1.000e-08
Number of eigenvalues below threshold      ... 0
Time for construction of square roots      ...    0.005 sec
Total time needed                          ...    0.012 sec

-------------------
DFT GRID GENERATION
-------------------

General Integration Accuracy     IntAcc      ...  4.340
Radial Grid Type                 RadialGrid  ... Gauss-Chebyshev
Angular Grid (max. acc.)         AngularGrid ... Lebedev-110
Angular grid pruning method      GridPruning ... 3 (G Style)
Weight generation scheme         WeightScheme... Becke
Basis function cutoff            BFCut       ...    1.0000e-11
Integration weight cutoff        WCut        ...    1.0000e-14
Grids for H and He will be reduced by one unit

# of grid points (after initial pruning)     ...  13570 (   0.0 sec)
# of grid points (after weights+screening)   ...  13196 (   0.0 sec)
nearest neighbour list constructed           ...    0.0 sec
Grid point re-assignment to atoms done       ...    0.0 sec
Grid point division into batches done        ...    0.0 sec
Reduced shell lists constructed in    0.2 sec

Total number of grid points                  ...    13196
Total number of batches                      ...      210
Average number of points per batch           ...       62
Average number of grid points per atom       ...     1466
Average number of shells per batch           ...    46.36 (62.64%)
Average number of basis functions per batch  ...   118.71 (63.14%)
Average number of large shells per batch     ...    36.13 (77.94%)
Average number of large basis fcns per batch ...    92.45 (77.88%)
Maximum spatial batch extension              ...  40.43, 30.77, 30.69 au
Average spatial batch extension              ...   4.54,  4.43,  5.21 au

Time for grid setup =    0.234 sec

--------------
SCF ITERATIONS
--------------
ITER       Energy         Delta-E        Max-DP      RMS-DP      [F,P]     Damp
               ***  Starting incremental Fock matrix formation  ***
  0   -370.2594996157   0.000000000000 0.00599956  0.00013738  0.5185630 0.7000
  1   -370.2607058574  -0.001206241727 0.00336123  0.00011630  0.3631451 0.7000
  2   -370.2615262757  -0.000820418249 0.00217703  0.00008973  0.2542257 0.7000
                               ***Turning on DIIS***
  3   -370.2621393445  -0.000613068873 0.00152992  0.00006867  0.1779548 0.7000
  4   -370.2625700610  -0.000430716492 0.00182259  0.00005435  0.1245596 0.7000
  5   -370.2628662756  -0.000296214553 0.00410002  0.00013923  0.0872048 0.0000
  6   -370.2635526291  -0.000686353464 0.00645508  0.00010013  0.0025541 0.0000
  7   -370.2634377740   0.000114855032 0.00291229  0.00004346  0.0053256 0.0000
  8   -370.2635619955  -0.000124221473 0.00160039  0.00002464  0.0025474 0.0000
  9   -370.2635936621  -0.000031666572 0.03447078  0.00042223  0.0009692 0.0000
 10   -370.2635458571   0.000047804998 0.00003322  0.00000047  0.0038626 0.0000
 11   -370.2635453213   0.000000535770 0.00005579  0.00000124  0.0039056 0.0000
 12   -370.2635459406  -0.000000619253 0.00014509  0.00000243  0.0038105 0.0000
 13   -370.2635475971  -0.000001656516 0.00104723  0.00001670  0.0036596 0.0000
 14   -370.2635479448  -0.000000347727 0.00319972  0.00005513  0.0026078 0.0000
 15   -370.2635704023  -0.000022457456 0.00189465  0.00003093  0.0015192 0.0000
 16   -370.2635863377  -0.000015935415 0.04867310  0.00059819  0.0006462 0.0000
 17   -370.2634614312   0.000124906449 0.00057351  0.00000928  0.0060372 0.0000
 18   -370.2634762171  -0.000014785903 0.00023081  0.00000380  0.0051725 0.0000
 19   -370.2634786792  -0.000002462072 0.00054299  0.00001093  0.0052963 0.0000
               *** Restarting incremental Fock matrix formation ***
                                   *** Resetting DIIS ***
 20   -370.2634739297   0.000004749446 0.00443739  0.00007734  0.0052854 0.0000
 21   -370.2635020235  -0.000028093773 0.00278541  0.00004379  0.0038130 0.0000
 22   -370.2635523663  -0.000050342749 0.00183236  0.00002702  0.0012292 0.0000
 23   -370.2635635224  -0.000011156099 0.06946482  0.00086452  0.0007621 0.0000
 24   -370.2632735637   0.000289958650 0.00070464  0.00001029  0.0078718 0.0000
 25   -370.2632970715  -0.000023507806 0.00032589  0.00000681  0.0070843 0.0000
 26   -370.2632865387   0.000010532853 0.00010193  0.00000181  0.0076375 0.0000
 27   -370.2632845265   0.000002012143 0.00003167  0.00000086  0.0076807 0.0000
 28   -370.2632836143   0.000000912244 0.00714000  0.00010590  0.0077121 0.0000
 29   -370.2634144671  -0.000130852845 0.00417724  0.00006846  0.0026280 0.0000
 30   -370.2634479321  -0.000033464925 0.00311101  0.00005095  0.0028380 0.0000
 31   -370.2634984326  -0.000050500569 0.00251259  0.00003835  0.0012384 0.0000
 32   -370.2635212640  -0.000022831329 0.00226536  0.00003195  0.0010786 0.0000
 33   -370.2635368826  -0.000015618617 0.06560671  0.00080661  0.0009937 0.0000
 34   -370.2634087617   0.000128120857 0.00037813  0.00000590  0.0072986 0.0000
 35   -370.2633975347   0.000011227011 0.00034529  0.00000468  0.0078460 0.0000
 36   -370.2633902322   0.000007302533 0.00031078  0.00000438  0.0080482 0.0000
 37   -370.2633851488   0.000005083417 0.00016986  0.00000447  0.0081407 0.0000
 38   -370.2633842035   0.000000945254 0.00535078  0.00008131  0.0079097 0.0000
 39   -370.2634875497  -0.000103346218 0.00315365  0.00004902  0.0015443 0.0000
               *** Restarting incremental Fock matrix formation ***
                                   *** Resetting DIIS ***
 40   -370.2635146638  -0.000027114112 0.00227758  0.00003846  0.0011202 0.0000
 41   -370.2635274893  -0.000012825492 0.00221329  0.00003149  0.0012797 0.0000
 42   -370.2635451825  -0.000017693159 0.07907455  0.00098221  0.0008809 0.0000
 43   -370.2631898596   0.000355322918 0.00012889  0.00000187  0.0088573 0.0000
 44   -370.2631850525   0.000004807082 0.00009648  0.00000127  0.0090055 0.0000
 45   -370.2631825849   0.000002467536 0.00020103  0.00000313  0.0090340 0.0000
 46   -370.2631844608  -0.000001875819 0.00032495  0.00000502  0.0089772 0.0000
 47   -370.2631833419   0.000001118846 0.00878804  0.00012728  0.0090028 0.0000
 48   -370.2633730393  -0.000189697398 0.00433023  0.00006843  0.0020535 0.0000
 49   -370.2634300761  -0.000057036775 0.00355892  0.00005045  0.0016057 0.0000
 50   -370.2634687646  -0.000038688518 0.00296601  0.00004202  0.0013751 0.0000
 51   -370.2634944529  -0.000025688255 0.00244309  0.00003639  0.0012310 0.0000
 52   -370.2635144430  -0.000019990106 0.00183238  0.00002901  0.0011531 0.0000
 53   -370.2635285230  -0.000014079986 0.00224701  0.00002939  0.0011633 0.0000
 54   -370.2635420236  -0.000013500617 0.00157918  0.00002368  0.0010180 0.0000
 55   -370.2635514367  -0.000009413108 0.00173900  0.00002288  0.0010195 0.0000
 56   -370.2635604828  -0.000009046071 0.05568219  0.00067971  0.0009336 0.0000
 57   -370.2634704398   0.000090042905 0.00030561  0.00000461  0.0060973 0.0000
 58   -370.2634774831  -0.000007043304 0.00027183  0.00000333  0.0056404 0.0000
 59   -370.2634815482  -0.000004065097 0.00025450  0.00000496  0.0054816 0.0000
               *** Restarting incremental Fock matrix formation ***
                                   *** Resetting DIIS ***
 60   -370.2634756576   0.000005890673 0.00481126  0.00007067  0.0060045 0.0000
 61   -370.2635347821  -0.000059124500 0.00247199  0.00003443  0.0015114 0.0000
 62   -370.2635499096  -0.000015127498 0.00198742  0.00002781  0.0014357 0.0000
 63   -370.2635635947  -0.000013685156 0.06859053  0.00084945  0.0007979 0.0000
 64   -370.2632927274   0.000270867360 0.00076445  0.00001132  0.0077152 0.0000
 65   -370.2633180780  -0.000025350644 0.00037307  0.00000745  0.0068526 0.0000
 66   -370.2633049838   0.000013094257 0.00008106  0.00000170  0.0075559 0.0000
 67   -370.2633017166   0.000003267171 0.00012340  0.00000199  0.0076288 0.0000
 68   -370.2633003963   0.000001320281 0.00690334  0.00010045  0.0076330 0.0000
 69   -370.2634300852  -0.000129688941 0.00393040  0.00006364  0.0019771 0.0000
 70   -370.2634551831  -0.000025097901 0.00311594  0.00004986  0.0024101 0.0000
 71   -370.2635034618  -0.000048278645 0.00246819  0.00003662  0.0012098 0.0000
 72   -370.2635250774  -0.000021615611 0.00206061  0.00002951  0.0010779 0.0000
 73   -370.2635390454  -0.000013967953 0.00182197  0.00002590  0.0010271 0.0000
 74   -370.2635502392  -0.000011193831 0.06569662  0.00080416  0.0009761 0.0000
 75   -370.2633855902   0.000164649016 0.00059548  0.00000892  0.0076658 0.0000
 76   -370.2634024714  -0.000016881217 0.00044662  0.00000577  0.0067775 0.0000
 77   -370.2634107707  -0.000008299341 0.00033928  0.00000615  0.0065895 0.0000
 78   -370.2634017119   0.000009058839 0.00008927  0.00000223  0.0073287 0.0000
 79   -370.2634014221   0.000000289770 0.00527682  0.00007800  0.0073007 0.0000
               *** Restarting incremental Fock matrix formation ***
                                   *** Resetting DIIS ***
 80   -370.2634895445  -0.000088122376 0.00302603  0.00004407  0.0014868 0.0000
 81   -370.2635057315  -0.000016186990 0.00252152  0.00003435  0.0019086 0.0000
 82   -370.2635318403  -0.000026108771 0.08580601  0.00106885  0.0009438 0.0000
 83   -370.2631030610   0.000428779264 0.00008250  0.00000122  0.0095435 0.0000
 84   -370.2630994386   0.000003622432 0.00006165  0.00000081  0.0096331 0.0000
 85   -370.2630976045   0.000001834060 0.00005823  0.00000196  0.0096507 0.0000
 86   -370.2630977848  -0.000000180315 0.00026782  0.00000772  0.0095579 0.0000
 87   -370.2630969253   0.000000859520 0.00954456  0.00014022  0.0093294 0.0000
 88   -370.2633304748  -0.000233549518 0.00462990  0.00007282  0.0025618 0.0000
 89   -370.2634010055  -0.000070530734 0.00380042  0.00005425  0.0017312 0.0000
 90   -370.2634435659  -0.000042560397 0.00317689  0.00004554  0.0014884 0.0000
 91   -370.2634734811  -0.000029915136 0.00257615  0.00003888  0.0013460 0.0000
 92   -370.2634972290  -0.000023747894 0.00207428  0.00003166  0.0012726 0.0000
 93   -370.2635138224  -0.000016593395 0.00236624  0.00003153  0.0012560 0.0000
 94   -370.2635296200  -0.000015797634 0.00176064  0.00002565  0.0011124 0.0000
 95   -370.2635409955  -0.000011375502 0.00187493  0.00002501  0.0011012 0.0000
 96   -370.2635514854  -0.000010489940 0.00166689  0.00002253  0.0010061 0.0000
 97   -370.2635601434  -0.000008657973 0.05473522  0.00066706  0.0009451 0.0000
 98   -370.2634796104   0.000080533061 0.00054213  0.00000843  0.0058717 0.0000
 99   -370.2634922013  -0.000012590948 0.00032881  0.00000585  0.0050854 0.0000
               *** Restarting incremental Fock matrix formation ***
                                   *** Resetting DIIS ***
100   -370.2634852970   0.000006904354 0.00467658  0.00006858  0.0057565 0.0000
101   -370.2635390258  -0.000053728874 0.00276721  0.00004310  0.0010311 0.0000
102   -370.2635524756  -0.000013449779 0.00196631  0.00002672  0.0010869 0.0000
103   -370.2635662806  -0.000013805015 0.06854273  0.00084832  0.0008107 0.0000
104   -370.2632837563   0.000282524279 0.00082188  0.00001187  0.0078321 0.0000
105   -370.2633102136  -0.000026457252 0.00040423  0.00000762  0.0068976 0.0000
106   -370.2632960190   0.000014194620 0.00028369  0.00000478  0.0076868 0.0000
107   -370.2632968135  -0.000000794541 0.00041264  0.00000640  0.0074932 0.0000
108   -370.2632944173   0.000002396263 0.00698099  0.00009877  0.0074498 0.0000
109   -370.2634309247  -0.000136507419 0.00381081  0.00005554  0.0019561 0.0000
110   -370.2634694457  -0.000038521043 0.00313485  0.00004507  0.0016249 0.0000
111   -370.2635024496  -0.000033003862 0.00258086  0.00003797  0.0012034 0.0000
112   -370.2635225992  -0.000020149605 0.00215973  0.00003065  0.0010757 0.0000
113   -370.2635378212  -0.000015221979 0.00167230  0.00002533  0.0010108 0.0000
114   -370.2635486479  -0.000010826705 0.00197460  0.00002584  0.0010087 0.0000
115   -370.2635587898  -0.000010141943 0.05244005  0.00064204  0.0008839 0.0000
116   -370.2634993667   0.000059423075 0.00042802  0.00000642  0.0054666 0.0000
117   -370.2634955112   0.000003855582 0.00027359  0.00000429  0.0057389 0.0000
118   -370.2634907199   0.000004791279 0.00028801  0.00000393  0.0059817 0.0000
119   -370.2634863565   0.000004363403 0.00025694  0.00000340  0.0061419 0.0000
               *** Restarting incremental Fock matrix formation ***
                                   *** Resetting DIIS ***
120   -370.2634831200   0.000003236498 0.00481208  0.00007190  0.0062092 0.0000
121   -370.2635438782  -0.000060758192 0.00233187  0.00003363  0.0013976 0.0000
122   -370.2635574214  -0.000013543209 0.00187429  0.00002732  0.0013792 0.0000
123   -370.2635707261  -0.000013304731 0.06370874  0.00078843  0.0007550 0.0000
124   -370.2633376335   0.000233092633 0.00070012  0.00001038  0.0071988 0.0000

               *****************************************************
               *                      ERROR                        *
               *        SCF NOT CONVERGED AFTER 125 CYCLES         *
               *****************************************************

Setting up the final grid:

General Integration Accuracy     IntAcc      ...  4.670
Radial Grid Type                 RadialGrid  ... Gauss-Chebyshev
Angular Grid (max. acc.)         AngularGrid ... Lebedev-302
Angular grid pruning method      GridPruning ... 3 (G Style)
Weight generation scheme         WeightScheme... Becke
Basis function cutoff            BFCut       ...    1.0000e-11
Integration weight cutoff        WCut        ...    1.0000e-14
Grids for H and He will be reduced by one unit

# of grid points (after initial pruning)     ...  50076 (   0.0 sec)
# of grid points (after weights+screening)   ...  48247 (   0.0 sec)
nearest neighbour list constructed           ...    0.0 sec
Grid point re-assignment to atoms done       ...    0.0 sec
Grid point division into batches done        ...    0.2 sec
Reduced shell lists constructed in    0.9 sec

Total number of grid points                  ...    48247
Total number of batches                      ...      760
Average number of points per batch           ...       63
Average number of grid points per atom       ...     5361
Average number of shells per batch           ...    41.82 (56.52%)
Average number of basis functions per batch  ...   106.39 (56.59%)
Average number of large shells per batch     ...    32.00 (76.52%)
Average number of large basis fcns per batch ...    81.25 (76.37%)
Maximum spatial batch extension              ...  31.96, 28.09, 28.59 au
Average spatial batch extension              ...   3.03,  3.00,  3.45 au

Final grid set up in    1.0 sec
Final integration                            ... done (   0.9 sec)
Change in XC energy                          ...     0.000831299
Integrated number of electrons               ...    50.000039947
Previous integrated no of electrons          ...    50.002219789
  Last Energy change         ...    2.3309e-04  Tolerance :   1.0000e-08
  Last MAX-Density change    ...    7.0012e-04  Tolerance :   1.0000e-07
             **** DENSITY FILE WAS UPDATED (opt.scfp.tmp) ****
             **** ENERGY FILE WAS UPDATED (opt.en.tmp) ****

     --------------------------------------------------------------------
                                      WARNING
     The wavefunction IS NOT YET CONVERGED! It shows however signs of
     convergence. Therefore the wavefunction will be stored and can be
     used as input for another calculation. 
     DO NOT USE THIS WAVEFUNCTION  FOR ANYHTING ELSE. It is NOT RELIABLE
     --------------------------------------------------------------------

Total SCF time: 0 days 0 hours 1 min 33 sec 

-------------------------   --------------------
FINAL SINGLE POINT ENERGY      -370.262506334958   (SCF not fully converged!)
-------------------------   --------------------

------------------------------------------------------------------------------
                         ORCA SCF GRADIENT CALCULATION
------------------------------------------------------------------------------

Gradient of the Kohn-Sham DFT energy:
Kohn-Sham wavefunction type      ... RKS
Hartree-Fock exchange scaling    ...    0.000
Number of operators              ...    1
Number of atoms                  ...    9
Basis set dimensions             ...  188
Integral neglect threshold       ... 2.5e-11
Integral primitive cutoff        ... 2.5e-12

Nuclear repulsion gradient       ... done
One Electron Gradient            
  ECP gradient                   ... done
Pre-screening matrix             ... done
RI-J gradient                    ... done
Exchange-correlation gradient    ... done

------------------
CARTESIAN GRADIENT
------------------

   1   W   :    0.002748062    0.005179552   -0.005284245
   2   O   :    0.000132029   -0.089270427   -0.004680008
   3   H   :   -0.006828773    0.007016926    0.007526612
   4   O   :   -0.081685663    0.008855033    0.000648409
   5   H   :    0.008880275   -0.015668334   -0.000818163
   6   O   :    0.006176745    0.089072129    0.003089325
   7   H   :   -0.011619845   -0.003418435   -0.000527392
   8   O   :    0.083922787   -0.010846880    0.001234979
   9   H   :   -0.001725618    0.009080436   -0.001189518

Difference to translation invariance:
           :   -0.0000000000   -0.0000000000    0.0000000000

Norm of the cartesian gradient     ...    0.1750998062
RMS gradient                       ...    0.0336979734
MAX gradient                       ...    0.0892704268

-------
TIMINGS
-------

Total SCF gradient time            ...        5.962 sec

One electron gradient       ....       1.202 sec  ( 20.2%)
Prescreening matrices       ....       0.464 sec  (  7.8%)
RI-J Coulomb gradient       ....       1.070 sec  ( 17.9%)
XC gradient                 ....       3.033 sec  ( 50.9%)
------------------------------------------------------------------------------
                         ORCA GEOMETRY RELAXATION STEP
------------------------------------------------------------------------------

Reading the OPT-File                    .... done
Getting information on internals        .... done
Copying old internal coords+grads       .... done
Making the new internal coordinates     .... (new redundants).... done
Validating the new internal coordinates .... (new redundants).... done
Calculating the B-matrix                .... done
Calculating the G,G- and P matrices     .... done
Transforming gradient to internals      .... done
Projecting the internal gradient        .... done
Number of atoms                         ....   9
Number of internal coordinates          ....  54
Current Energy                          ....  -370.262506335 Eh
Current gradient norm                   ....     0.175099806 Eh/bohr
Maximum allowed component of the step   ....  0.300
Current trust radius                    ....  0.300
Updating the Hessian (BFGS)             .... done
Forming the augmented Hessian           .... done
Diagonalizing the augmented Hessian     .... done
Last element of RFO vector              ....  0.755392348
Lowest eigenvalues of augmented Hessian:
 -0.118241308  0.001014675  0.001522458  0.001533375  0.001576985
Length of the computed step             ....  0.867460162
Warning: the length of the step is outside the trust region - taking restricted step instead
The input lambda is                     ....    -0.118241
   iter:   1  x=   -0.186167  g=    9.753084 f(x)=     0.662487
   iter:   2  x=   -0.270724  g=    3.245716 f(x)=     0.274446
   iter:   3  x=   -0.353531  g=    1.240303 f(x)=     0.102706
   iter:   4  x=   -0.403135  g=    0.609346 f(x)=     0.030226
   iter:   5  x=   -0.414590  g=    0.426731 f(x)=     0.004888
   iter:   6  x=   -0.415053  g=    0.395295 f(x)=     0.000183
   iter:   7  x=   -0.415054  g=    0.394089 f(x)=     0.000000
   iter:   8  x=   -0.415054  g=    0.394087 f(x)=     0.000000
   iter:   9  x=   -0.415054  g=    0.394087 f(x)=     0.000000
The output lambda is                    ....    -0.415054 (9 iterations)
The final length of the internal step   ....  0.300000000
Converting the step to cartesian space:
 Initial RMS(Int)=    0.0408248290
Transforming coordinates:
 Iter   0:  RMS(Cart)=    0.0642211165 RMS(Int)=    0.0407018942
 Iter   1:  RMS(Cart)=    0.0010810318 RMS(Int)=    0.0008854288
 Iter   2:  RMS(Cart)=    0.0000398407 RMS(Int)=    0.0000983336
 Iter   3:  RMS(Cart)=    0.0000062471 RMS(Int)=    0.0000314077
 Iter   4:  RMS(Cart)=    0.0000020336 RMS(Int)=    0.0000106629
 Iter   5:  RMS(Cart)=    0.0000006808 RMS(Int)=    0.0000036144
 Iter   6:  RMS(Cart)=    0.0000002298 RMS(Int)=    0.0000012239
 Iter   7:  RMS(Cart)=    0.0000000777 RMS(Int)=    0.0000004143
done
Storing new coordinates                 .... done

                                .--------------------.
          ----------------------|Geometry convergence|-------------------------
          Item                value                   Tolerance       Converged
          ---------------------------------------------------------------------
          Energy change      -0.0440203458            0.0000050000      NO
          RMS gradient        0.0188009161            0.0001000000      NO
          MAX gradient        0.0751385323            0.0003000000      NO
          RMS step            0.0408248290            0.0020000000      NO
          MAX step            0.1657309290            0.0040000000      NO
          ........................................................
          Max(Bonds)      0.0877      Max(Angles)    3.84
          Max(Dihed)        0.27      Max(Improp)    0.00
          ---------------------------------------------------------------------

The optimization has not yet converged - more geometry cycles are needed


    ---------------------------------------------------------------------------
                         Redundant Internal Coordinates
                            (Angstroem and degrees)

        Definition                    Value    dE/dq     Step     New-Value
    ----------------------------------------------------------------------------
     1. B(O   1,W   0)                2.1437  0.075139 -0.0877    2.0560   
     2. B(H   2,O   1)                0.9650 -0.011627  0.0071    0.9721   
     3. B(O   3,W   0)                2.0507  0.061696 -0.0672    1.9835   
     4. B(H   4,O   3)                0.9608 -0.008682  0.0054    0.9662   
     5. B(O   5,W   0)                2.2443  0.044773 -0.0519    2.1924   
     6. B(O   5,H   4)                2.7046  0.016579 -0.0195    2.6852   
     7. B(H   6,O   5)                0.9653 -0.013256  0.0095    0.9748   
     8. B(H   6,W   0)                2.7462  0.009949 -0.0148    2.7315   
     9. B(O   7,H   6)                2.9491  0.019262 -0.0242    2.9250   
    10. B(O   7,W   0)                2.3431  0.055223 -0.0666    2.2765   
    11. B(H   8,H   2)                2.7839  0.003855 -0.0045    2.7793   
    12. B(H   8,O   1)                3.0650  0.010939 -0.0141    3.0509   
    13. B(H   8,O   7)                0.9646 -0.010934  0.0075    0.9721   
    14. B(H   8,W   0)                2.8551  0.004846 -0.0085    2.8465   
    15. A(O   1,W   0,H   6)          162.61 -0.009019    1.14    163.75   
    16. A(O   5,W   0,O   7)           89.44 -0.004451    0.52     89.95   
    17. A(O   1,W   0,O   3)           89.38  0.020036   -2.29     87.10   
    18. A(O   3,W   0,H   6)          108.01 -0.011014    1.14    109.15   
    19. A(H   6,W   0,O   7)           70.32 -0.003579    0.49     70.81   
    20. A(O   1,W   0,O   7)           92.29 -0.005448    0.65     92.94   
    21. A(O   3,W   0,O   5)           88.89 -0.010141    1.12     90.01   
    22. A(O   5,W   0,H   6)           19.12 -0.000873    0.03     19.14   
    23. A(W   0,O   1,H   2)          110.42 -0.010051    1.25    111.67   
    24. A(W   0,O   3,H   4)          110.67 -0.012338    1.56    112.23   
    25. A(O   3,H   4,O   5)           99.15  0.020435   -2.46     96.69   
    26. A(W   0,O   5,H   4)           61.29  0.002044   -0.21     61.08   
    27. A(H   4,O   5,H   6)          172.57 -0.015062    1.97    174.55   
    28. A(W   0,O   5,H   6)          111.29 -0.017106    2.18    113.47   
    29. A(W   0,H   6,O   5)           49.60  0.017980   -2.21     47.39   
    30. A(W   0,O   7,H   8)          112.51 -0.029297    3.84    116.35   
    31. D(H   2,O   1,W   0,O   3)    134.98  0.000632   -0.08    134.90   
    32. D(H   2,O   1,W   0,H   6)    -44.75 -0.001142    0.17    -44.58   
    33. D(H   2,O   1,W   0,O   7)    -45.25  0.001871   -0.24    -45.49   
    34. D(H   4,O   3,W   0,O   5)      0.01 -0.000015   -0.00      0.01   
    35. D(H   4,O   3,W   0,H   6)      0.01 -0.000026   -0.00      0.01   
    36. D(H   4,O   3,W   0,O   1)   -179.90 -0.000546    0.08   -179.82   
    37. D(O   5,H   4,O   3,W   0)     -0.01  0.000011    0.00     -0.01   
    38. D(H   4,O   5,O   1,H   2)    134.75  0.002116   -0.24    134.51   
    39. D(H   6,O   5,O   1,H   2)    -45.26  0.002170   -0.25    -45.51   
    40. D(H   4,O   5,W   0,O   7)   -179.78 -0.001224    0.16   -179.62   
    41. D(H   4,O   5,W   0,H   6)   -180.00 -0.000024    0.00   -179.99   
    42. D(H   4,O   5,W   0,O   3)     -0.00  0.000006    0.00     -0.00   
    43. D(H   6,O   5,W   0,O   7)      0.22 -0.001200    0.16      0.38   
    44. D(H   6,O   5,H   4,O   3)     -0.01  0.000207   -0.03     -0.04   
    45. D(H   6,O   5,W   0,O   3)    179.99  0.000030   -0.00    179.99   
    46. D(W   0,O   5,H   4,O   3)      0.01 -0.000009   -0.00      0.01   
    47. D(W   0,H   6,O   5,H   4)      0.02 -0.000206    0.03      0.05   
    48. D(O   5,H   6,W   0,O   7)   -179.77 -0.001269    0.16   -179.60   
    49. D(O   5,H   6,W   0,O   3)     -0.01  0.000033   -0.00     -0.01   
    50. D(O   5,H   6,W   0,O   1)    179.71  0.001914   -0.27    179.44   
    51. D(H   8,O   7,O   3,H   4)    179.79  0.001256   -0.15    179.64   
[...]

         *************************************************************
         *                GEOMETRY OPTIMIZATION CYCLE  50            *
         *************************************************************
---------------------------------
CARTESIAN COORDINATES (ANGSTROEM)
---------------------------------
  W     -0.670203    0.664820   -0.084761
  O     -0.774682   -1.115783   -0.703362
  H     -0.690875   -1.414836   -1.619640
  O     -2.522374    0.892494    0.150103
  H     -3.050451    0.706775    0.938703
  O     -0.422848    2.513238   -0.387379
  H      0.186820    2.880520   -1.044652
  O      1.058354    0.391178    0.615180
  H      1.373329    0.607184    1.504188

----------------------------
CARTESIAN COORDINATES (A.U.)
----------------------------
  NO LB      ZA    FRAG     MASS         X           Y           Z
   0 W    14.0000*   0   183.850   -1.266500    1.256327   -0.160175
   1 O     8.0000    0    15.999   -1.463937   -2.108524   -1.329162
   2 H     1.0000    0     1.008   -1.305565   -2.673652   -3.060677
   3 O     8.0000    0    15.999   -4.766596    1.686570    0.283654
   4 H     1.0000    0     1.008   -5.764516    1.335611    1.773891
   5 O     8.0000    0    15.999   -0.799067    4.749332   -0.732039
   6 H     1.0000    0     1.008    0.353038    5.443393   -1.974106
   7 O     8.0000    0    15.999    2.000000    0.739219    1.162522
   8 H     1.0000    0     1.008    2.595215    1.147412    2.842503
* core charge reduced due to ECP

--------------------------------
INTERNAL COORDINATES (ANGSTROEM)
--------------------------------
 W      0   0   0     0.000000000000     0.00000000     0.00000000
 O      1   0   0     1.887890258437     0.00000000     0.00000000
 H      2   1   0     0.967482252770   126.66035803     0.00000000
 O      1   2   3     1.880833220700    95.77309310   103.10223904
 H      4   1   2     0.967080911973   128.04722665    89.55049004
 O      1   2   3     1.889289010069   151.34565805   358.68715842
 H      6   1   2     0.968812923707   124.19156738   324.53395506
 O      1   2   3     1.884862523412    92.03460460   255.09686555
 H      8   1   2     0.967575641791   127.39587708   230.21379701

---------------------------
INTERNAL COORDINATES (A.U.)
---------------------------
 W      0   0   0     0.000000000000     0.00000000     0.00000000
 O      1   0   0     3.567595559344     0.00000000     0.00000000
 H      2   1   0     1.828276497165   126.66035803     0.00000000
 O      1   2   3     3.554259690704    95.77309310   103.10223904
 H      4   1   2     1.827518072972   128.04722665    89.55049004
 O      1   2   3     3.570238816857   151.34565805   358.68715842
 H      6   1   2     1.830791100810   124.19156738   324.53395506
 O      1   2   3     3.561873969340    92.03460460   255.09686555
 H      8   1   2     1.828452976837   127.39587708   230.21379701

 One Electron integrals                  ... done
 Pre-screening matrix                    ... done

Diagonalization of the overlap matrix:
Smallest eigenvalue                        ... 2.426e-03
Time for diagonalization                   ...    0.007 sec
Threshold for overlap eigenvalues          ... 1.000e-08
Number of eigenvalues below threshold      ... 0
Time for construction of square roots      ...    0.009 sec
Total time needed                          ...    0.016 sec

-------------------
DFT GRID GENERATION
-------------------

General Integration Accuracy     IntAcc      ...  4.340
Radial Grid Type                 RadialGrid  ... Gauss-Chebyshev
Angular Grid (max. acc.)         AngularGrid ... Lebedev-110
Angular grid pruning method      GridPruning ... 3 (G Style)
Weight generation scheme         WeightScheme... Becke
Basis function cutoff            BFCut       ...    1.0000e-11
Integration weight cutoff        WCut        ...    1.0000e-14
Grids for H and He will be reduced by one unit

# of grid points (after initial pruning)     ...  13570 (   0.0 sec)
# of grid points (after weights+screening)   ...  13123 (   0.0 sec)
nearest neighbour list constructed           ...    0.0 sec
Grid point re-assignment to atoms done       ...    0.0 sec
Grid point division into batches done        ...    0.0 sec
Reduced shell lists constructed in    0.2 sec

Total number of grid points                  ...    13123
Total number of batches                      ...      210
Average number of points per batch           ...       62
Average number of grid points per atom       ...     1458
Average number of shells per batch           ...    48.72 (65.84%)
Average number of basis functions per batch  ...   126.16 (67.11%)
Average number of large shells per batch     ...    38.59 (79.20%)
Average number of large basis fcns per batch ...    99.50 (78.87%)
Maximum spatial batch extension              ...  40.43, 40.43, 27.37 au
Average spatial batch extension              ...   4.64,  4.65,  4.33 au

Time for grid setup =    0.240 sec

--------------
SCF ITERATIONS
--------------
ITER       Energy         Delta-E        Max-DP      RMS-DP      [F,P]     Damp
               ***  Starting incremental Fock matrix formation  ***
  0   -370.4026462327   0.000000000000 0.00083148  0.00002990  0.0408631 0.7000
  1   -370.4027165858  -0.000070353105 0.00087160  0.00002936  0.0286141 0.7000
                               ***Turning on DIIS***
  2   -370.4027706398  -0.000054054035 0.00235703  0.00007910  0.0200302 0.0000
  3   -370.4028986129  -0.000127973154 0.00050814  0.00001685  0.0002085 0.0000
  4   -370.4028992470  -0.000000634040 0.00064497  0.00000885  0.0002958 0.0000
  5   -370.4028993945  -0.000000147511 0.00021975  0.00000379  0.0001840 0.0000
  6   -370.4028995164  -0.000000121879 0.00005313  0.00000131  0.0001501 0.0000
  7   -370.4028995558  -0.000000039403 0.00001899  0.00000043  0.0000358 0.0000
  8   -370.4028995584  -0.000000002643 0.00002167  0.00000029  0.0000119 0.0000
  9   -370.4028995578   0.000000000667 0.00001118  0.00000014  0.0000107 0.0000
 10   -370.4028995568   0.000000000951 0.00000165  0.00000003  0.0000010 0.0000
                 **** Energy Check signals convergence ****

               *****************************************************
               *                     SUCCESS                       *
               *           SCF CONVERGED AFTER  11 CYCLES          *
               *****************************************************

Setting up the final grid:

General Integration Accuracy     IntAcc      ...  4.670
Radial Grid Type                 RadialGrid  ... Gauss-Chebyshev
Angular Grid (max. acc.)         AngularGrid ... Lebedev-302
Angular grid pruning method      GridPruning ... 3 (G Style)
Weight generation scheme         WeightScheme... Becke
Basis function cutoff            BFCut       ...    1.0000e-11
Integration weight cutoff        WCut        ...    1.0000e-14
Grids for H and He will be reduced by one unit

# of grid points (after initial pruning)     ...  50076 (   0.0 sec)
# of grid points (after weights+screening)   ...  48141 (   0.1 sec)
nearest neighbour list constructed           ...    0.0 sec
Grid point re-assignment to atoms done       ...    0.0 sec
Grid point division into batches done        ...    0.2 sec
Reduced shell lists constructed in    0.9 sec

Total number of grid points                  ...    48141
Total number of batches                      ...      757
Average number of points per batch           ...       63
Average number of grid points per atom       ...     5349
Average number of shells per batch           ...    44.11 (59.61%)
Average number of basis functions per batch  ...   113.24 (60.23%)
Average number of large shells per batch     ...    34.25 (77.65%)
Average number of large basis fcns per batch ...    87.80 (77.54%)
Maximum spatial batch extension              ...  31.96, 31.96, 29.20 au
Average spatial batch extension              ...   3.04,  3.04,  2.99 au

Final grid set up in    1.0 sec
Final integration                            ... done (   1.1 sec)
Change in XC energy                          ...     0.000298633
Integrated number of electrons               ...    49.999966107
Previous integrated no of electrons          ...    50.003266720
Total Energy       :         -370.40260092 Eh          -10079.16719 eV
  Last Energy change         ...    1.4390e-09  Tolerance :   1.0000e-08
  Last MAX-Density change    ...    7.4882e-07  Tolerance :   1.0000e-07
             **** THE GBW FILE WAS UPDATED (opt.gbw) ****
             **** DENSITY FILE WAS UPDATED (opt.scfp.tmp) ****
             **** ENERGY FILE WAS UPDATED (opt.en.tmp) ****
Total SCF time: 0 days 0 hours 0 min 10 sec 

-------------------------   --------------------
FINAL SINGLE POINT ENERGY      -370.402600922749
-------------------------   --------------------

------------------------------------------------------------------------------
                         ORCA SCF GRADIENT CALCULATION
------------------------------------------------------------------------------

Gradient of the Kohn-Sham DFT energy:
Kohn-Sham wavefunction type      ... RKS
Hartree-Fock exchange scaling    ...    0.000
Number of operators              ...    1
Number of atoms                  ...    9
Basis set dimensions             ...  188
Integral neglect threshold       ... 2.5e-11
Integral primitive cutoff        ... 2.5e-12

Nuclear repulsion gradient       ... done
One Electron Gradient            
  ECP gradient                   ... done
Pre-screening matrix             ... done
RI-J gradient                    ... done
Exchange-correlation gradient    ... done

------------------
CARTESIAN GRADIENT
------------------

   1   W   :    0.000057038    0.000664027   -0.001098738
   2   O   :   -0.001146259   -0.001488733    0.000408426
   3   H   :    0.000783985    0.000608478    0.000039420
   4   O   :    0.000398232   -0.000342148    0.001107438
   5   H   :    0.000085471    0.000078840   -0.000525694
   6   O   :   -0.000339329    0.000659725   -0.000244522
   7   H   :    0.000307587   -0.000204101    0.000206320
   8   O   :   -0.000548506    0.000604511    0.000132024
   9   H   :    0.000401780   -0.000580599   -0.000024675

Difference to translation invariance:
           :   -0.0000000000   -0.0000000000   -0.0000000000

Norm of the cartesian gradient     ...    0.0031778445
RMS gradient                       ...    0.0006115765
MAX gradient                       ...    0.0014887326

-------
TIMINGS
-------

Total SCF gradient time            ...        8.211 sec

One electron gradient       ....       1.304 sec  ( 15.9%)
Prescreening matrices       ....       0.539 sec  (  6.6%)
RI-J Coulomb gradient       ....       1.194 sec  ( 14.5%)
XC gradient                 ....       4.969 sec  ( 60.5%)
------------------------------------------------------------------------------
                         ORCA GEOMETRY RELAXATION STEP
------------------------------------------------------------------------------

Reading the OPT-File                    .... done
Getting information on internals        .... done
Copying old internal coords+grads       .... done
Making the new internal coordinates     .... (new redundants).... done
Validating the new internal coordinates .... (new redundants).... done
Calculating the B-matrix                .... done
Calculating the G,G- and P matrices     .... done
Transforming gradient to internals      .... done
Projecting the internal gradient        .... done
Number of atoms                         ....   9
Number of internal coordinates          ....  26
Current Energy                          ....  -370.402600923 Eh
Current gradient norm                   ....     0.003177845 Eh/bohr
Maximum allowed component of the step   ....  0.300
Current trust radius                    ....  0.300
Updating the Hessian (BFGS)             .... done
Forming the augmented Hessian           .... done
Diagonalizing the augmented Hessian     .... done
Last element of RFO vector              ....  0.107900888
Lowest eigenvalues of augmented Hessian:
 -0.015333573  0.000115010  0.001961469  0.004939879  0.008399152
Length of the computed step             ....  9.213655957
Warning: the length of the step is outside the trust region - taking restricted step instead
The input lambda is                     ....    -0.015334
   iter:   1  x=   -0.015424  g=941566.062281 f(x)=    84.801456
   iter:   2  x=   -0.015559  g=279284.037721 f(x)=    37.667931
   iter:   3  x=   -0.015760  g=82948.013725 f(x)=    16.718471
   iter:   4  x=   -0.016060  g=24708.497196 f(x)=     7.407389
   iter:   5  x=   -0.016501  g= 7409.072216 f(x)=     3.269164
   iter:   6  x=   -0.017135  g= 2254.804292 f(x)=     1.430134
   iter:   7  x=   -0.018000  g=  709.033679 f(x)=     0.613218
   iter:   8  x=   -0.019050  g=  239.300202 f(x)=     0.251120
   iter:   9  x=   -0.020038  g=   93.368948 f(x)=     0.092330
   iter:  10  x=   -0.020590  g=   47.385607 f(x)=     0.026135
   iter:  11  x=   -0.020702  g=   34.384560 f(x)=     0.003840
   iter:  12  x=   -0.020705  g=   32.350958 f(x)=     0.000115
   iter:  13  x=   -0.020705  g=   32.288844 f(x)=     0.000000
   iter:  14  x=   -0.020705  g=   32.288784 f(x)=     0.000000
The output lambda is                    ....    -0.020705 (14 iterations)
The final length of the internal step   ....  0.300000000
Converting the step to cartesian space:
 Initial RMS(Int)=    0.0588348405
Transforming coordinates:
 Iter   0:  RMS(Cart)=    0.0675271071 RMS(Int)=    0.0583322138
 Iter   1:  RMS(Cart)=    0.0071087634 RMS(Int)=    0.0070857487
 Iter   2:  RMS(Cart)=    0.0012163511 RMS(Int)=    0.0010481444
 Iter   3:  RMS(Cart)=    0.0001815713 RMS(Int)=    0.0001791828
 Iter   4:  RMS(Cart)=    0.0000385073 RMS(Int)=    0.0000377871
 Iter   5:  RMS(Cart)=    0.0000062501 RMS(Int)=    0.0000062839
 Iter   6:  RMS(Cart)=    0.0000012304 RMS(Int)=    0.0000010857
 Iter   7:  RMS(Cart)=    0.0000001809 RMS(Int)=    0.0000001754
 Iter   8:  RMS(Cart)=    0.0000000389 RMS(Int)=    0.0000000394
done
Storing new coordinates                 .... done

                                .--------------------.
          ----------------------|Geometry convergence|-------------------------
          Item                value                   Tolerance       Converged
          ---------------------------------------------------------------------
          Energy change      -0.0000208949            0.0000050000      NO
          RMS gradient        0.0005058653            0.0001000000      NO
          MAX gradient        0.0012428126            0.0003000000      NO
          RMS step            0.0588348405            0.0020000000      NO
          MAX step            0.2128254723            0.0040000000      NO
          ........................................................
          Max(Bonds)      0.0182      Max(Angles)   12.19
          Max(Dihed)        5.79      Max(Improp)    0.00
          ---------------------------------------------------------------------

The optimization has not yet converged - more geometry cycles are needed


    ---------------------------------------------------------------------------
                         Redundant Internal Coordinates
                            (Angstroem and degrees)

        Definition                    Value    dE/dq     Step     New-Value
    ----------------------------------------------------------------------------
     1. B(O   1,W   0)                1.8879  0.000700 -0.0182    1.8697   
     2. B(H   2,O   1)                0.9675 -0.000148 -0.0012    0.9663   
     3. B(O   3,W   0)                1.8808 -0.000431  0.0093    1.8901   
     4. B(H   4,O   3)                0.9671 -0.000503  0.0024    0.9694   
     5. B(O   5,W   0)                1.8893  0.000453 -0.0054    1.8838   
     6. B(H   6,O   5)                0.9688 -0.000035  0.0016    0.9704   
     7. B(O   7,W   0)                1.8849 -0.000106 -0.0033    1.8816   
     8. B(H   8,O   7)                0.9676 -0.000005 -0.0005    0.9671   
     9. A(O   1,W   0,O   7)           92.03 -0.000438    1.33     93.37   
    10. A(O   5,W   0,O   7)           94.67  0.000265    0.36     95.03   
    11. A(O   1,W   0,O   3)           95.77 -0.000231   -0.43     95.34   
    12. A(O   3,W   0,O   5)           91.75  0.000435   -1.16     90.59   
    13. A(W   0,O   1,H   2)          126.66 -0.001243   12.19    138.85   
    14. A(W   0,O   3,H   4)          128.05  0.000385   -1.61    126.44   
    15. A(W   0,O   5,H   6)          124.19 -0.000377   -0.63    123.56   
    16. A(W   0,O   7,H   8)          127.40  0.000975   -2.84    124.55   
    17. D(H   2,O   1,W   0,O   7)   -104.90  0.000039   -5.79   -110.70   
    18. D(H   2,O   1,W   0,O   3)    103.10  0.001023   -4.38     98.72   
    19. D(H   4,O   3,W   0,O   1)     89.55 -0.000593    0.63     90.18   
    20. D(H   4,O   3,W   0,O   5)   -118.14  0.000204   -0.66   -118.80   
    21. D(H   6,O   5,W   0,O   7)     67.47  0.000018    1.48     68.95   
    22. D(H   6,O   5,O   1,H   2)    -32.36  0.000040   -3.94    -36.30   
    23. D(H   6,O   5,W   0,O   3)   -140.87 -0.000614   -0.34   -141.21   
    24. D(H   8,O   7,O   3,H   4)    -33.85  0.000262   -3.80    -37.65   
    25. D(H   8,O   7,W   0,O   5)     78.10 -0.000155   -3.55     74.55   
    26. D(H   8,O   7,W   0,O   1)   -129.79  0.000530   -5.32   -135.11   
    ----------------------------------------------------------------------------




    ----------------------------------------------------------------------------
                                  WARNING !!!
       The optimization did not converge but reached the maximum number of
       optimization cycles.
       Please check your results very carefully.
    ----------------------------------------------------------------------------



                            ***************************************
                            *     ORCA property calculations      *
                            ***************************************

                                    ---------------------
                                    Active property flags
                                    ---------------------
   (+) Dipole Moment


------------------------------------------------------------------------------
                       ORCA ELECTRIC PROPERTIES CALCULATION
------------------------------------------------------------------------------

Dipole Moment Calculation                       ... on
Quadrupole Moment Calculation                   ... off
Polarizability Calculation                      ... off
GBWName                                         ... opt.gbw
Electron density file                           ... opt.scfp.tmp
The origin for moment calculation is the CENTER OF MASS  = (-1.220557,  1.269429 -0.174535)

-------------
DIPOLE MOMENT
-------------
                                X             Y             Z
Electronic contribution:      0.03146      -0.82196      -0.41706
Nuclear contribution   :      0.13735       0.70092       0.49813
                        -----------------------------------------
Total Dipole Moment    :      0.16881      -0.12104       0.08107
                        -----------------------------------------
Magnitude (a.u.)       :      0.22298
Magnitude (Debye)      :      0.56676


Timings for individual modules:

Sum of individual times         ...     1305.702 sec (=  21.762 min)
GTO integral calculation        ...       46.764 sec (=   0.779 min)   3.6 %
SCF iterations                  ...      899.417 sec (=  14.990 min)  68.9 %
SCF Gradient evaluation         ...      350.783 sec (=   5.846 min)  26.9 %
Geometry relaxation             ...        8.738 sec (=   0.146 min)   0.7 %
                             ****ORCA TERMINATED NORMALLY****
TOTAL RUN TIME: 0 days 0 hours 21 minutes 50 seconds 912 msec
