
                                 *****************
                                 * O   R   C   A *
                                 *****************

           --- An Ab Initio, DFT and Semiempirical electronic structure package ---

                  #######################################################
                  #                        -***-                        #
                  #  Department of molecular theory and spectroscopy    #
                  #              Directorship: Frank Neese              #
                  # Max Planck Institute for Chemical Energy Conversion #
                  #                  D-45470 Muelheim/Ruhr              #
                  #                       Germany                       #
                  #                                                     #
                  #                  All rights reserved                #
                  #                        -***-                        #
                  #######################################################


                         Program Version 4.0.1.2 - RELEASE -


 With contributions from (in alphabetic order):
   Daniel Aravena         : Magnetic Properties
   Michael Atanasov       : Ab Initio Ligand Field Theory
   Ute Becker             : Parallelization
   Martin Brehm           : Molecular dynamics
   Dmytro Bykov           : SCF Hessian
   Vijay G. Chilkuri      : MRCI spin determinant printing
   Dipayan Datta          : RHF DLPNO-CCSD density
   Achintya Kumar Dutta   : EOM-CC, STEOM-CC
   Dmitry Ganyushin       : Spin-Orbit,Spin-Spin,Magnetic field MRCI
   Yang Guo               : DLPNO-NEVPT2, CIM, IAO-localization
   Andreas Hansen         : Spin unrestricted coupled pair/coupled cluster methods
   Lee Huntington         : MR-EOM, pCC
   Robert Izsak           : Overlap fitted RIJCOSX, COSX-SCS-MP3, EOM
   Christian Kollmar      : KDIIS, OOCD, Brueckner-CCSD(T), CCSD density
   Simone Kossmann        : Meta GGA functionals, TD-DFT gradient, OOMP2, MP2 Hessian
   Martin Krupicka        : AUTO-CI
   Dagmar Lenk            : GEPOL surface
   Dimitrios Liakos       : Extrapolation schemes; parallel MDCI
   Dimitrios Manganas     : ROCIS; embedding schemes
   Dimitrios Pantazis     : SARC Basis sets
   Taras Petrenko         : DFT Hessian,TD-DFT gradient, ASA, ECA, R-Raman, ABS, FL, XAS/XES, NRVS
   Peter Pinski           : DLPNO-MP2
   Christoph Reimann      : Effective Core Potentials
   Marius Retegan         : Local ZFS, SOC
   Christoph Riplinger    : Optimizer, TS searches, QM/MM, DLPNO-CCSD(T), (RO)-DLPNO pert. Triples
   Tobias Risthaus        : Range-separated hybrids, TD-DFT gradient, RPA, STAB
   Michael Roemelt        : Restricted open shell CIS
   Masaaki Saitow         : Open-shell DLPNO
   Barbara Sandhoefer     : DKH picture change effects
   Kantharuban Sivalingam : CASSCF convergence, NEVPT2, FIC-MRCI
   Georgi Stoychev        : AutoAux
   Boris Wezisla          : Elementary symmetry handling
   Frank Wennmohs         : Technical directorship


 We gratefully acknowledge several colleagues who have allowed us to
 interface, adapt or use parts of their codes:
   Stefan Grimme, W. Hujo, H. Kruse,             : VdW corrections, initial TS optimization,
                  C. Bannwarth                     DFT functionals, gCP, sTDA/sTD-DF
   Ed Valeev                                     : LibInt (2-el integral package), F12 methods
   Garnet Chan, S. Sharma, J. Yang, R. Olivares  : DMRG
   Ulf Ekstrom                                   : XCFun DFT Library
   Mihaly Kallay                                 : mrcc  (arbitrary order and MRCC methods)
   Andreas Klamt, Michael Diedenhofen            : otool_cosmo (COSMO solvation model)
   Jiri Pittner, Ondrej Demel                    : Mk-CCSD
   Frank Weinhold                                : gennbo (NPA and NBO analysis)
   Christopher J. Cramer and Donald G. Truhlar   : smd solvation model


 Your calculation uses the libint2 library for the computation of 2-el integrals
 For citations please refer to: http://libint.valeyev.net

 This ORCA versions uses:
   CBLAS   interface :  Fast vector & matrix operations
   LAPACKE interface :  Fast linear algebra routines
   SCALAPACK package :  Parallel linear algebra routines




*****************************************
The coordinations will be read from file: C2H4.xyz
*****************************************


Your calculation utilizes the basis: def2-TZVP
   F. Weigend and R. Ahlrichs, Phys. Chem. Chem. Phys. 7, 3297 (2005).

Your calculation utilizes the auxiliary basis: def2/J
   F. Weigend, Phys. Chem. Chem. Phys. 8, 1057 (2006).

================================================================================
                                        WARNINGS
                       Please study these warnings very carefully!
================================================================================

Warning: TCutStore was < 0. Adjusted to Thresh (uncritical)

WARNING: Geometry Optimization
  ===> : Switching off AutoStart
         For restart on a previous wavefunction, please use MOREAD

INFO   : the flag for use of LIBINT has been found!

================================================================================
                                       INPUT FILE
================================================================================
NAME = opt.inp
|  1> # avogadro generated ORCA input file 
|  2> # Basic Mode
|  3> # 
|  4> ! PBE OPT def2-TZVP
|  5> 
|  6> * xyzfile 0 1 C2H4.xyz
|  7> 
|  8> 
|  9>                          ****END OF INPUT****
================================================================================

                       *****************************
                       * Geometry Optimization Run *
                       *****************************

Geometry optimization settings:
Update method            Update   .... BFGS
Choice of coordinates    CoordSys .... Redundant Internals
Initial Hessian          InHess   .... Almoef's Model

Convergence Tolerances:
Energy Change            TolE     ....  5.0000e-06 Eh
Max. Gradient            TolMAXG  ....  3.0000e-04 Eh/bohr
RMS Gradient             TolRMSG  ....  1.0000e-04 Eh/bohr
Max. Displacement        TolMAXD  ....  4.0000e-03 bohr
RMS Displacement         TolRMSD  ....  2.0000e-03 bohr

------------------------------------------------------------------------------
                        ORCA OPTIMIZATION COORDINATE SETUP
------------------------------------------------------------------------------

The optimization will be done in new redundant internal coordinates
Making redundant internal coordinates   ...  (new redundants) done
Evaluating the initial hessian          ...  (Almloef) done
Evaluating the coordinates              ...  done
Calculating the B-matrix                .... done
Calculating the G-matrix                .... done
Diagonalizing the G-matrix              .... done
The first mode is                       ....    8
The number of degrees of freedom        ....   12

    -----------------------------------------------------------------
                    Redundant Internal Coordinates


    -----------------------------------------------------------------
         Definition                    Initial Value    Approx d2E/dq
    -----------------------------------------------------------------
      1. B(C   1,C   0)                  2.6469         0.006173   
      2. B(H   2,C   0)                  1.8970         0.018571   
      3. B(H   3,H   2)                  2.1464         0.001423   
      4. B(H   3,C   0)                  1.5090         0.077244   
      5. B(H   4,C   1)                  1.7114         0.036736   
      6. B(H   5,C   1)                  1.6006         0.055183   
      7. A(C   1,C   0,H   3)          148.1836         0.154618   
      8. A(C   1,C   0,H   2)          134.6230         0.136524   
      9. A(H   2,C   0,H   3)           77.1934         0.161821   
     10. A(C   0,C   1,H   5)          140.8275         0.149809   
     11. A(H   4,C   1,H   5)           95.2050         0.167750   
     12. A(C   0,C   1,H   4)          123.9675         0.144459   
     13. A(C   0,H   2,H   3)           43.2813         0.112577   
     14. A(C   0,H   3,H   2)           59.5253         0.121554   
     15. D(H   4,C   1,C   0,H   3)   -179.9999         0.001502   
     16. D(H   5,C   1,C   0,H   3)      0.0003         0.001502   
     17. D(H   4,C   1,C   0,H   2)     -0.0005         0.001502   
     18. D(H   5,C   1,C   0,H   2)    179.9998         0.001502   
     19. D(H   3,H   2,C   0,C   1)   -179.9997         0.001653   
     20. D(H   2,H   3,C   0,C   1)    179.9996         0.004581   
    -----------------------------------------------------------------

Number of atoms                         .... 6
Number of degrees of freedom            .... 20

         *************************************************************
         *                GEOMETRY OPTIMIZATION CYCLE   1            *
         *************************************************************
---------------------------------
CARTESIAN COORDINATES (ANGSTROEM)
---------------------------------
  C     -5.196670   -0.673070   -1.057610
  C     -2.593870   -0.273540   -0.789730
  H     -6.422630   -0.547520   -2.499840
  H     -6.507350   -1.059110   -0.417060
  H     -1.564890    0.214190   -2.067250
  H     -1.436880   -0.330860    0.314800

----------------------------
CARTESIAN COORDINATES (A.U.)
----------------------------
  NO LB      ZA    FRAG     MASS         X           Y           Z
   0 C     6.0000    0    12.011   -9.820283   -1.271918   -1.998593
   1 C     6.0000    0    12.011   -4.901704   -0.516916   -1.492373
   2 H     1.0000    0     1.008  -12.137012   -1.034663   -4.724013
   3 H     1.0000    0     1.008  -12.297109   -2.001428   -0.788129
   4 H     1.0000    0     1.008   -2.957214    0.404760   -3.906536
   5 H     1.0000    0     1.008   -2.715310   -0.625235    0.594886

--------------------------------
INTERNAL COORDINATES (ANGSTROEM)
--------------------------------
 C      0   0   0     0.000000000000     0.00000000     0.00000000
 C      1   0   0     2.646875848108     0.00000000     0.00000000
 H      1   2   0     1.897041933379   134.62303589     0.00000000
 H      1   2   3     1.509043818615   148.18357969   180.00057250
 H      2   1   3     1.711355528141   123.96748172     0.00000000
 H      2   1   3     1.600593003671   140.82754055   179.99975083

---------------------------
INTERNAL COORDINATES (A.U.)
---------------------------
 C      0   0   0     0.000000000000     0.00000000     0.00000000
 C      1   0   0     5.001870463416     0.00000000     0.00000000
 H      1   2   0     3.584889718652   134.62303589     0.00000000
 H      1   2   3     2.851679541269   148.18357969   180.00057250
 H      2   1   3     3.233993265959   123.96748172     0.00000000
 H      2   1   3     3.024682428808   140.82754055   179.99975083

---------------------
BASIS SET INFORMATION
---------------------
There are 2 groups of distinct atoms

 Group   1 Type C   : 11s6p2d1f contracted to 5s3p2d1f pattern {62111/411/11/1}
 Group   2 Type H   : 5s1p contracted to 3s1p pattern {311/1}

Atom   0C    basis set group =>   1
Atom   1C    basis set group =>   1
Atom   2H    basis set group =>   2
Atom   3H    basis set group =>   2
Atom   4H    basis set group =>   2
Atom   5H    basis set group =>   2
-------------------------------
AUXILIARY BASIS SET INFORMATION
-------------------------------
There are 2 groups of distinct atoms

 Group   1 Type C   : 12s5p4d2f1g contracted to 6s4p3d1f1g pattern {711111/2111/211/2/1}
 Group   2 Type H   : 5s2p1d contracted to 3s1p1d pattern {311/2/1}

Atom   0C    basis set group =>   1
Atom   1C    basis set group =>   1
Atom   2H    basis set group =>   2
Atom   3H    basis set group =>   2
Atom   4H    basis set group =>   2
Atom   5H    basis set group =>   2
------------------------------------------------------------------------------
                           ORCA GTO INTEGRAL CALCULATION
                           -- RI-GTO INTEGRALS CHOSEN --
------------------------------------------------------------------------------

                         BASIS SET STATISTICS AND STARTUP INFO

Gaussian basis set:
 # of primitive gaussian shells          ...   64
 # of primitive gaussian functions       ...  124
 # of contracted shells                  ...   38
 # of contracted basis functions         ...   86
 Highest angular momentum                ...    3
 Maximum contraction depth               ...    6
Auxiliary gaussian basis set:
 # of primitive gaussian shells          ...   80
 # of primitive gaussian functions       ...  204
 # of contracted shells                  ...   50
 # of contracted aux-basis functions     ...  142
 Highest angular momentum                ...    4
 Maximum contraction depth               ...    7
Ratio of auxiliary to basis functions    ...  1.65
Integral package used                  ... LIBINT
 One Electron integrals                  ... done
 Ordering auxiliary basis shells         ... done
 Integral threshhold             Thresh  ...  2.500e-11
 Primitive cut-off               TCut    ...  2.500e-12
 Pre-screening matrix                    ... done
 Shell pair data                         ... 
 Ordering of the shell pairs             ... done (   0.000 sec) 699 of 741 pairs
 Determination of significant pairs      ... done (   0.000 sec)
 Creation of shell pair data             ... done (   0.000 sec)
 Storage of shell pair data              ... done (   0.003 sec)
 Shell pair data done in (   0.003 sec)
 Computing two index integrals           ... done
 Cholesky decomposition of the V-matrix  ... done


Timings:
 Total evaluation time                   ...   0.245 sec (  0.004 min)
 One electron matrix time                ...   0.010 sec (  0.000 min) =  4.0%
 Schwartz matrix evaluation time         ...   0.202 sec (  0.003 min) = 82.6%
 Two index repulsion integral time       ...   0.003 sec (  0.000 min) =  1.1%
 Cholesky decomposition of V             ...   0.002 sec (  0.000 min) =  1.0%
 Three index repulsion integral time     ...   0.000 sec (  0.000 min) =  0.0%

-------------------------------------------------------------------------------
                                 ORCA SCF
-------------------------------------------------------------------------------

------------
SCF SETTINGS
------------
Hamiltonian:
 Density Functional     Method          .... DFT(GTOs)
 Exchange Functional    Exchange        .... PBE
   PBE kappa parameter   XKappa         ....  0.804000
   PBE mue parameter    XMuePBE         ....  0.219520
 Correlation Functional Correlation     .... PBE
   PBE beta parameter  CBetaPBE         ....  0.066725
 LDA part of GGA corr.  LDAOpt          .... PW91-LDA
 Gradients option       PostSCFGGA      .... off
   NL short-range parameter             ....  6.400000
 RI-approximation to the Coulomb term is turned on
   Number of auxiliary basis functions  .... 142


General Settings:
 Integral files         IntName         .... opt
 Hartree-Fock type      HFTyp           .... RHF
 Total Charge           Charge          ....    0
 Multiplicity           Mult            ....    1
 Number of Electrons    NEL             ....   16
 Basis Dimension        Dim             ....   86
 Nuclear Repulsion      ENuc            ....     18.8351416775 Eh

Convergence Acceleration:
 DIIS                   CNVDIIS         .... on
   Start iteration      DIISMaxIt       ....    12
   Startup error        DIISStart       ....  0.200000
   # of expansion vecs  DIISMaxEq       ....     5
   Bias factor          DIISBfac        ....   1.050
   Max. coefficient     DIISMaxC        ....  10.000
 Newton-Raphson         CNVNR           .... off
 SOSCF                  CNVSOSCF        .... on
   Start iteration      SOSCFMaxIt      ....   150
   Startup grad/error   SOSCFStart      ....  0.003300
 Level Shifting         CNVShift        .... on
   Level shift para.    LevelShift      ....    0.2500
   Turn off err/grad.   ShiftErr        ....    0.0010
 Zerner damping         CNVZerner       .... off
 Static damping         CNVDamp         .... on
   Fraction old density DampFac         ....    0.7000
   Max. Damping (<1)    DampMax         ....    0.9800
   Min. Damping (>=0)   DampMin         ....    0.0000
   Turn off err/grad.   DampErr         ....    0.1000
 Fernandez-Rico         CNVRico         .... off

SCF Procedure:
 Maximum # iterations   MaxIter         ....   125
 SCF integral mode      SCFMode         .... Direct
   Integral package                     .... LIBINT
 Reset frequeny         DirectResetFreq ....    20
 Integral Threshold     Thresh          ....  2.500e-11 Eh
 Primitive CutOff       TCut            ....  2.500e-12 Eh

Convergence Tolerance:
 Convergence Check Mode ConvCheckMode   .... Total+1el-Energy
 Convergence forced     ConvForced      .... 0
 Energy Change          TolE            ....  1.000e-08 Eh
 1-El. energy change                    ....  1.000e-05 Eh
 Orbital Gradient       TolG            ....  1.000e-05
 Orbital Rotation angle TolX            ....  1.000e-05
 DIIS Error             TolErr          ....  5.000e-07


Diagonalization of the overlap matrix:
Smallest eigenvalue                        ... 1.190e-02
Time for diagonalization                   ...    0.002 sec
Threshold for overlap eigenvalues          ... 1.000e-08
Number of eigenvalues below threshold      ... 0
Time for construction of square roots      ...    0.002 sec
Total time needed                          ...    0.004 sec

-------------------
DFT GRID GENERATION
-------------------

General Integration Accuracy     IntAcc      ...  4.340
Radial Grid Type                 RadialGrid  ... Gauss-Chebyshev
Angular Grid (max. acc.)         AngularGrid ... Lebedev-110
Angular grid pruning method      GridPruning ... 3 (G Style)
Weight generation scheme         WeightScheme... Becke
Basis function cutoff            BFCut       ...    1.0000e-11
Integration weight cutoff        WCut        ...    1.0000e-14
Grids for H and He will be reduced by one unit

# of grid points (after initial pruning)     ...   6488 (   0.0 sec)
# of grid points (after weights+screening)   ...   6390 (   0.0 sec)
nearest neighbour list constructed           ...    0.0 sec
Grid point re-assignment to atoms done       ...    0.0 sec
Grid point division into batches done        ...    0.0 sec
Reduced shell lists constructed in    0.1 sec

Total number of grid points                  ...     6390
Total number of batches                      ...      103
Average number of points per batch           ...       62
Average number of grid points per atom       ...     1065
Average number of shells per batch           ...    27.88 (73.38%)
Average number of basis functions per batch  ...    65.23 (75.85%)
Average number of large shells per batch     ...    23.49 (84.24%)
Average number of large basis fcns per batch ...    54.70 (83.86%)
Maximum spatial batch extension              ...  20.90, 26.36, 20.56 au
Average spatial batch extension              ...   5.29,  6.25,  5.27 au

Time for grid setup =    0.074 sec

------------------------------
INITIAL GUESS: MODEL POTENTIAL
------------------------------
Loading Hartree-Fock densities                     ... done
Calculating cut-offs                               ... done
Setting up the integral package                    ... done
Initializing the effective Hamiltonian             ... done
Starting the Coulomb interaction                   ... done (   0.0 sec)
Reading the grid                                   ... done
Mapping shells                                     ... done
Starting the XC term evaluation                    ... done (   0.1 sec)
  promolecular density results
     # of electrons  =     15.997993755
     EX              =    -10.972170346
     EC              =     -0.416085777
     EX+EC           =    -11.388256123
Transforming the Hamiltonian                       ... done (   0.0 sec)
Diagonalizing the Hamiltonian                      ... done (   0.0 sec)
Back transforming the eigenvectors                 ... done (   0.0 sec)
Now organizing SCF variables                       ... done
                      ------------------
                      INITIAL GUESS DONE (   0.3 sec)
                      ------------------
--------------
SCF ITERATIONS
--------------
ITER       Energy         Delta-E        Max-DP      RMS-DP      [F,P]     Damp
               ***  Starting incremental Fock matrix formation  ***
  0    -77.8812072161   0.000000000000 0.02745000  0.00118875  0.0993211 0.7000
  1    -77.8964605412  -0.015253325072 0.01734295  0.00076019  0.0329325 0.7000
                               ***Turning on DIIS***
  2    -77.8984694059  -0.002008864777 0.01765680  0.00092256  0.0139439 0.0000
  3    -77.9038563886  -0.005386982667 0.01786661  0.00097285  0.0369820 0.0000
  4    -77.9059109132  -0.002054524630 0.00868780  0.00032678  0.0176101 0.0000
  5    -77.9065205781  -0.000609664850 0.00389817  0.00014296  0.0083424 0.0000
  6    -77.9066477706  -0.000127192516 0.00164971  0.00006224  0.0042585 0.0000
                      *** Initiating the SOSCF procedure ***
                           *** Shutting down DIIS ***
                      *** Re-Reading the Fockian *** 
                      *** Removing any level shift *** 
ITER      Energy       Delta-E        Grad      Rot      Max-DP    RMS-DP
  7    -77.90667809  -0.0000303210  0.000232  0.000232  0.000565  0.000027
               *** Restarting incremental Fock matrix formation ***
  8    -77.90668490  -0.0000068055  0.000512  0.003286  0.002570  0.000097
  9    -77.90665547   0.0000294249  0.002021  0.002594  0.001944  0.000074
 10    -77.90668692  -0.0000314470  0.000025  0.000136  0.000121  0.000005
 11    -77.90668685   0.0000000649  0.000076  0.000088  0.000083  0.000004
                  ***Gradient check signals convergence***
              ***Rediagonalizing the Fockian in SOSCF/NRSCF***

               *****************************************************
               *                     SUCCESS                       *
               *           SCF CONVERGED AFTER  12 CYCLES          *
               *****************************************************

Setting up the final grid:

General Integration Accuracy     IntAcc      ...  4.670
Radial Grid Type                 RadialGrid  ... Gauss-Chebyshev
Angular Grid (max. acc.)         AngularGrid ... Lebedev-302
Angular grid pruning method      GridPruning ... 3 (G Style)
Weight generation scheme         WeightScheme... Becke
Basis function cutoff            BFCut       ...    1.0000e-11
Integration weight cutoff        WCut        ...    1.0000e-14
Grids for H and He will be reduced by one unit

# of grid points (after initial pruning)     ...  26000 (   0.0 sec)
# of grid points (after weights+screening)   ...  25597 (   0.0 sec)
nearest neighbour list constructed           ...    0.0 sec
Grid point re-assignment to atoms done       ...    0.0 sec
Grid point division into batches done        ...    0.1 sec
Reduced shell lists constructed in    0.3 sec

Total number of grid points                  ...    25597
Total number of batches                      ...      403
Average number of points per batch           ...       63
Average number of grid points per atom       ...     4266
Average number of shells per batch           ...    24.92 (65.58%)
Average number of basis functions per batch  ...    57.77 (67.17%)
Average number of large shells per batch     ...    20.57 (82.55%)
Average number of large basis fcns per batch ...    47.59 (82.38%)
Maximum spatial batch extension              ...  17.39, 20.42, 18.87 au
Average spatial batch extension              ...   3.30,  3.62,  3.38 au

Final grid set up in    0.3 sec
Final integration                            ... done (   0.3 sec)
Change in XC energy                          ...    -0.000434204
Integrated number of electrons               ...    15.999986461
Previous integrated no of electrons          ...    15.999350998

----------------
TOTAL SCF ENERGY
----------------

Total Energy       :          -77.90712113 Eh           -2119.96054 eV

Components:
Nuclear Repulsion  :           18.83514168 Eh             512.53026 eV
Electronic Energy  :          -96.74226281 Eh           -2632.49080 eV
One Electron Energy:         -140.81921650 Eh           -3831.88569 eV
Two Electron Energy:           44.07695369 Eh            1199.39489 eV

Virial components:
Potential Energy   :         -154.71349791 Eh           -4209.96831 eV
Kinetic Energy     :           76.80637678 Eh            2090.00777 eV
Virial Ratio       :            2.01433142


DFT components:
N(Alpha)           :        7.999993230614 electrons
N(Beta)            :        7.999993230614 electrons
N(Total)           :       15.999986461228 electrons
E(X)               :      -11.024764741716 Eh       
E(C)               :       -0.423560110520 Eh       
E(XC)              :      -11.448324852235 Eh       

---------------
SCF CONVERGENCE
---------------

  Last Energy change         ...   -7.4576e-08  Tolerance :   1.0000e-08
  Last MAX-Density change    ...    7.5722e-06  Tolerance :   1.0000e-07
  Last RMS-Density change    ...    3.9817e-07  Tolerance :   5.0000e-09
  Last Orbital Gradient      ...    1.9446e-06  Tolerance :   1.0000e-05
  Last Orbital Rotation      ...    1.3054e-05  Tolerance :   1.0000e-05

             **** THE GBW FILE WAS UPDATED (opt.gbw) ****
             **** DENSITY FILE WAS UPDATED (opt.scfp.tmp) ****
             **** ENERGY FILE WAS UPDATED (opt.en.tmp) ****
----------------
ORBITAL ENERGIES
----------------

  NO   OCC          E(Eh)            E(eV) 
   0   2.0000     -10.047528      -273.4071 
   1   2.0000     -10.045032      -273.3392 
   2   2.0000      -0.541968       -14.7477 
   3   2.0000      -0.522541       -14.2191 
   4   2.0000      -0.297764        -8.1026 
   5   2.0000      -0.285579        -7.7710 
   6   2.0000      -0.256646        -6.9837 
   7   2.0000      -0.223504        -6.0818 
   8   0.0000      -0.209972        -5.7136 
   9   0.0000      -0.186919        -5.0863 
  10   0.0000      -0.100973        -2.7476 
  11   0.0000      -0.067551        -1.8382 
  12   0.0000      -0.052221        -1.4210 
  13   0.0000      -0.016874        -0.4592 
  14   0.0000       0.168844         4.5945 
  15   0.0000       0.181966         4.9516 
  16   0.0000       0.190525         5.1844 
  17   0.0000       0.223537         6.0827 
  18   0.0000       0.242808         6.6071 
  19   0.0000       0.246522         6.7082 
  20   0.0000       0.254579         6.9275 
  21   0.0000       0.267427         7.2771 
  22   0.0000       0.286635         7.7997 
  23   0.0000       0.298560         8.1242 
  24   0.0000       0.343379         9.3438 
  25   0.0000       0.368229        10.0200 
  26   0.0000       0.520407        14.1610 
  27   0.0000       0.561672        15.2839 
  28   0.0000       0.581901        15.8343 
  29   0.0000       0.620219        16.8770 
  30   0.0000       0.684441        18.6246 
  31   0.0000       0.718189        19.5429 
  32   0.0000       0.731723        19.9112 
  33   0.0000       0.742562        20.2061 
  34   0.0000       0.871558        23.7163 
  35   0.0000       0.970301        26.4032 
  36   0.0000       1.159378        31.5483 
  37   0.0000       1.251338        34.0506 
  38   0.0000       1.266919        34.4746 
  39   0.0000       1.267149        34.4809 
  40   0.0000       1.319784        35.9132 
  41   0.0000       1.320806        35.9409 
  42   0.0000       1.370030        37.2804 
  43   0.0000       1.396071        37.9890 
  44   0.0000       1.407121        38.2897 
  45   0.0000       1.429007        38.8852 
  46   0.0000       1.435186        39.0534 
  47   0.0000       1.461882        39.7798 
  48   0.0000       1.504813        40.9480 
  49   0.0000       1.523812        41.4650 
  50   0.0000       1.534635        41.7595 
  51   0.0000       1.676287        45.6141 
  52   0.0000       1.830850        49.8200 
  53   0.0000       1.873401        50.9778 
  54   0.0000       1.947819        53.0029 
  55   0.0000       2.003464        54.5170 
  56   0.0000       2.296871        62.5010 
  57   0.0000       2.329609        63.3919 
  58   0.0000       2.366330        64.3911 
  59   0.0000       2.433862        66.2288 
  60   0.0000       2.540124        69.1203 
  61   0.0000       2.579247        70.1849 
  62   0.0000       2.591779        70.5259 
  63   0.0000       2.602238        70.8105 
  64   0.0000       2.611958        71.0750 
  65   0.0000       2.626244        71.4637 
  66   0.0000       2.639717        71.8303 
  67   0.0000       2.646638        72.0187 
  68   0.0000       2.707300        73.6694 
  69   0.0000       2.755259        74.9744 
  70   0.0000       2.777278        75.5736 
  71   0.0000       2.840493        77.2937 
  72   0.0000       2.868211        78.0480 
  73   0.0000       2.875661        78.2507 
  74   0.0000       2.883742        78.4706 
  75   0.0000       2.903432        79.0064 
  76   0.0000       2.960709        80.5650 
  77   0.0000       2.997595        81.5687 
  78   0.0000       3.012225        81.9668 
  79   0.0000       3.181230        86.5657 
  80   0.0000       3.269684        88.9726 
  81   0.0000       3.352085        91.2149 
  82   0.0000       3.452103        93.9365 
  83   0.0000       3.519067        95.7587 
  84   0.0000      20.995728       571.3228 
  85   0.0000      21.179663       576.3279 

                    ********************************
                    * MULLIKEN POPULATION ANALYSIS *
                    ********************************

-----------------------
MULLIKEN ATOMIC CHARGES
-----------------------
   0 C :   -0.073377
   1 C :   -0.084990
   2 H :   -0.010825
   3 H :    0.076125
   4 H :    0.040179
   5 H :    0.052888
Sum of atomic charges:    0.0000000

--------------------------------
MULLIKEN REDUCED ORBITAL CHARGES
--------------------------------
  0 C s       :     3.937970  s :     3.937970
      pz      :     1.003432  p :     2.105231
      px      :     1.011230
      py      :     0.090569
      dz2     :     0.001801  d :     0.029664
      dxz     :     0.013754
      dyz     :     0.000452
      dx2y2   :     0.010973
      dxy     :     0.002684
      f0      :     0.000166  f :     0.000512
      f+1     :     0.000052
      f-1     :     0.000001
      f+2     :     0.000173
      f-2     :     0.000024
      f+3     :     0.000044
      f-3     :     0.000052
  1 C s       :     3.925737  s :     3.925737
      pz      :     0.963474  p :     2.130863
      px      :     1.081812
      py      :     0.085577
      dz2     :     0.000461  d :     0.027950
      dxz     :     0.016800
      dyz     :     0.001073
      dx2y2   :     0.008024
      dxy     :     0.001593
      f0      :     0.000032  f :     0.000439
      f+1     :     0.000217
      f-1     :     0.000003
      f+2     :     0.000131
      f-2     :     0.000032
      f+3     :     0.000015
      f-3     :     0.000008
  2 H s       :     1.007602  s :     1.007602
      pz      :     0.001714  p :     0.003224
      px      :     0.001428
      py      :     0.000082
  3 H s       :     0.914592  s :     0.914592
      pz      :     0.002928  p :     0.009283
      px      :     0.005910
      py      :     0.000445
  4 H s       :     0.954854  s :     0.954854
      pz      :     0.002359  p :     0.004966
      px      :     0.002278
      py      :     0.000330
  5 H s       :     0.940385  s :     0.940385
      pz      :     0.002831  p :     0.006726
      px      :     0.003786
      py      :     0.000110


                     *******************************
                     * LOEWDIN POPULATION ANALYSIS *
                     *******************************

----------------------
LOEWDIN ATOMIC CHARGES
----------------------
   0 C :   -0.151277
   1 C :   -0.153420
   2 H :    0.037175
   3 H :    0.100224
   4 H :    0.081356
   5 H :    0.085942

-------------------------------
LOEWDIN REDUCED ORBITAL CHARGES
-------------------------------
  0 C s       :     3.847413  s :     3.847413
      pz      :     1.052822  p :     2.233087
      px      :     1.083787
      py      :     0.096479
      dz2     :     0.006069  d :     0.068525
      dxz     :     0.025199
      dyz     :     0.001067
      dx2y2   :     0.029845
      dxy     :     0.006346
      f0      :     0.000423  f :     0.002252
      f+1     :     0.000370
      f-1     :     0.000005
      f+2     :     0.000701
      f-2     :     0.000211
      f+3     :     0.000263
      f-3     :     0.000280
  1 C s       :     3.835997  s :     3.835997
      pz      :     1.026140  p :     2.250073
      px      :     1.133706
      py      :     0.090228
      dz2     :     0.003167  d :     0.065002
      dxz     :     0.033735
      dyz     :     0.002581
      dx2y2   :     0.021969
      dxy     :     0.003550
      f0      :     0.000076  f :     0.002349
      f+1     :     0.001083
      f-1     :     0.000077
      f+2     :     0.000687
      f-2     :     0.000203
      f+3     :     0.000160
      f-3     :     0.000064
  2 H s       :     0.956497  s :     0.956497
      pz      :     0.003019  p :     0.006328
      px      :     0.003203
      py      :     0.000106
  3 H s       :     0.872934  s :     0.872934
      pz      :     0.006549  p :     0.026841
      px      :     0.018868
      py      :     0.001425
  4 H s       :     0.906453  s :     0.906453
      pz      :     0.005764  p :     0.012191
      px      :     0.005562
      py      :     0.000866
  5 H s       :     0.895586  s :     0.895586
      pz      :     0.007666  p :     0.018472
      px      :     0.010625
      py      :     0.000181


                      *****************************
                      * MAYER POPULATION ANALYSIS *
                      *****************************

  NA   - Mulliken gross atomic population
  ZA   - Total nuclear charge
  QA   - Mulliken gross atomic charge
  VA   - Mayer's total valence
  BVA  - Mayer's bonded valence
  FA   - Mayer's free valence

  ATOM       NA         ZA         QA         VA         BVA        FA
  0 C      6.0734     6.0000    -0.0734     1.8923     1.8923     0.0000
  1 C      6.0850     6.0000    -0.0850     1.9112     1.9112    -0.0000
  2 H      1.0108     1.0000    -0.0108     0.9817     0.9817    -0.0000
  3 H      0.9239     1.0000     0.0761     0.9584     0.9584     0.0000
  4 H      0.9598     1.0000     0.0402     0.9766     0.9766    -0.0000
  5 H      0.9471     1.0000     0.0529     0.9687     0.9687     0.0000

  Mayer bond orders larger than 0.1
B(  0-C ,  2-H ) :   0.9488 B(  0-C ,  3-H ) :   0.9291 B(  1-C ,  4-H ) :   0.9523 
B(  1-C ,  5-H ) :   0.9419 

-------
TIMINGS
-------

Total SCF time: 0 days 0 hours 0 min 4 sec 

Total time                  ....       4.725 sec
Sum of individual times     ....       4.586 sec  ( 97.1%)

Fock matrix formation       ....       3.862 sec  ( 81.7%)
  Split-RI-J                ....       2.384 sec  ( 61.7% of F)
  XC integration            ....       1.344 sec  ( 34.8% of F)
    Basis function eval.    ....       0.545 sec  ( 40.5% of XC)
    Density eval.           ....       0.182 sec  ( 13.5% of XC)
    XC-Functional eval.     ....       0.137 sec  ( 10.2% of XC)
    XC-Potential eval.      ....       0.262 sec  ( 19.5% of XC)
Diagonalization             ....       0.018 sec  (  0.4%)
Density matrix formation    ....       0.001 sec  (  0.0%)
Population analysis         ....       0.006 sec  (  0.1%)
Initial guess               ....       0.240 sec  (  5.1%)
Orbital Transformation      ....       0.000 sec  (  0.0%)
Orbital Orthonormalization  ....       0.000 sec  (  0.0%)
DIIS solution               ....       0.034 sec  (  0.7%)
SOSCF solution              ....       0.024 sec  (  0.5%)
Grid generation             ....       0.401 sec  (  8.5%)

-------------------------   --------------------
FINAL SINGLE POINT ENERGY       -77.907121132593
-------------------------   --------------------

------------------------------------------------------------------------------
                         ORCA SCF GRADIENT CALCULATION
------------------------------------------------------------------------------

Gradient of the Kohn-Sham DFT energy:
Kohn-Sham wavefunction type      ... RKS
Hartree-Fock exchange scaling    ...    0.000
Number of operators              ...    1
Number of atoms                  ...    6
Basis set dimensions             ...   86
Integral neglect threshold       ... 2.5e-11
Integral primitive cutoff        ... 2.5e-12

Nuclear repulsion gradient       ... done
One Electron Gradient            ... done
Pre-screening matrix             ... done
RI-J gradient                    ... done
Exchange-correlation gradient    ... done

------------------
CARTESIAN GRADIENT
------------------

   1   C   :    0.114093190    0.015154355    0.021639577
   2   C   :   -0.098750424   -0.017749272    0.000759084
   3   H   :   -0.040602563    0.002888655   -0.042696115
   4   H   :   -0.060686387   -0.016306975    0.023367037
   5   H   :    0.038703300    0.019583956   -0.053425693
   6   H   :    0.047242884   -0.003570719    0.050356110

Difference to translation invariance:
           :    0.0000000000    0.0000000000    0.0000000000

Norm of the cartesian gradient     ...    0.2031581754
RMS gradient                       ...    0.0478848412
MAX gradient                       ...    0.1140931897

-------
TIMINGS
-------

Total SCF gradient time            ...        1.380 sec

One electron gradient       ....       0.016 sec  (  1.1%)
Prescreening matrices       ....       0.064 sec  (  4.6%)
RI-J Coulomb gradient       ....       0.203 sec  ( 14.7%)
XC gradient                 ....       0.913 sec  ( 66.1%)
------------------------------------------------------------------------------
                         ORCA GEOMETRY RELAXATION STEP
------------------------------------------------------------------------------

Reading the OPT-File                    .... done
Getting information on internals        .... done
Copying old internal coords+grads       .... done
Making the new internal coordinates     .... (new redundants).... done
Validating the new internal coordinates .... (new redundants).... done
Calculating the B-matrix                .... done
Calculating the G,G- and P matrices     .... done
Transforming gradient to internals      .... done
Projecting the internal gradient        .... done
Number of atoms                         ....   6
Number of internal coordinates          ....  20
Current Energy                          ....   -77.907121133 Eh
Current gradient norm                   ....     0.203158175 Eh/bohr
Maximum allowed component of the step   ....  0.300
Current trust radius                    ....  0.300
Evaluating the initial hessian          ....  (Almloef) done
Projecting the Hessian                  .... done
Forming the augmented Hessian           .... done
Diagonalizing the augmented Hessian     .... done
Last element of RFO vector              ....  0.766893700
Lowest eigenvalues of augmented Hessian:
 -0.107889589  0.001502231  0.001502234  0.002425063  0.006441251
Length of the computed step             ....  0.836848893
Warning: the length of the step is outside the trust region - taking restricted step instead
The input lambda is                     ....    -0.107890
   iter:   1  x=   -0.173313  g=    9.328645 f(x)=     0.610316
   iter:   2  x=   -0.254033  g=    3.123345 f(x)=     0.252115
   iter:   3  x=   -0.330850  g=    1.213060 f(x)=     0.093183
   iter:   4  x=   -0.374108  g=    0.613148 f(x)=     0.026524
   iter:   5  x=   -0.382996  g=    0.443270 f(x)=     0.003940
   iter:   6  x=   -0.383287  g=    0.416428 f(x)=     0.000121
   iter:   7  x=   -0.383287  g=    0.415588 f(x)=     0.000000
   iter:   8  x=   -0.383287  g=    0.415587 f(x)=     0.000000
   iter:   9  x=   -0.383287  g=    0.415587 f(x)=     0.000000
The output lambda is                    ....    -0.383287 (9 iterations)
The final length of the internal step   ....  0.300000000
Converting the step to cartesian space:
 Initial RMS(Int)=    0.0670820393
Transforming coordinates:
 Iter   0:  RMS(Cart)=    0.0659624681 RMS(Int)=    1.4065508128
 Iter   1:  RMS(Cart)=    0.0004188732 RMS(Int)=    0.0004207592
 Iter   2:  RMS(Cart)=    0.0000211364 RMS(Int)=    0.0000141762
 Iter   3:  RMS(Cart)=    0.0000010467 RMS(Int)=    0.0000006482
 Iter   4:  RMS(Cart)=    0.0000000539 RMS(Int)=    0.0000000338
done
Storing new coordinates                 .... done

                                .--------------------.
          ----------------------|Geometry convergence|-------------------------
          Item                value                   Tolerance       Converged
          ---------------------------------------------------------------------
          RMS gradient        0.0292038889            0.0001000000      NO
          MAX gradient        0.0690275189            0.0003000000      NO
          RMS step            0.0670820393            0.0020000000      NO
          MAX step            0.1636421787            0.0040000000      NO
          ........................................................
          Max(Bonds)      0.0866      Max(Angles)    2.69
          Max(Dihed)        0.00      Max(Improp)    0.00
          ---------------------------------------------------------------------

The optimization has not yet converged - more geometry cycles are needed


    ---------------------------------------------------------------------------
                         Redundant Internal Coordinates
                            (Angstroem and degrees)

        Definition                    Value    dE/dq     Step     New-Value
    ----------------------------------------------------------------------------
     1. B(C   1,C   0)                2.6469 -0.013087  0.0178    2.6647   
     2. B(H   2,C   0)                1.8970  0.050341 -0.0637    1.8333   
     3. B(H   3,H   2)                2.1464  0.012239 -0.0199    2.1265   
     4. B(H   3,C   0)                1.5090  0.060139 -0.0683    1.4407   
     5. B(H   4,C   1)                1.7114  0.068733 -0.0866    1.6248   
     6. B(H   5,C   1)                1.6006  0.069028 -0.0833    1.5173   
     7. A(C   1,C   0,H   3)          148.18  0.013162   -1.54    146.64   
     8. A(C   1,C   0,H   2)          134.62  0.009180   -1.15    133.47   
     9. A(H   2,C   0,H   3)           77.19 -0.022341    2.69     79.89   
    10. A(C   0,C   1,H   5)          140.83 -0.004352    0.46    141.29   
    11. A(H   4,C   1,H   5)           95.20  0.007623   -0.80     94.40   
    12. A(C   0,C   1,H   4)          123.97 -0.003272    0.34    124.31   
    13. A(C   0,H   2,H   3)           43.28  0.012236   -1.37     41.92   
    14. A(C   0,H   3,H   2)           59.53  0.010105   -1.33     58.20   
    15. D(H   4,C   1,C   0,H   3)   -180.00  0.000018   -0.00   -180.00   
    16. D(H   5,C   1,C   0,H   3)      0.00  0.000016   -0.00     -0.00   
    17. D(H   4,C   1,C   0,H   2)     -0.00  0.000022   -0.00     -0.00   
    18. D(H   5,C   1,C   0,H   2)    180.00  0.000020   -0.00    180.00   
    19. D(H   3,H   2,C   0,C   1)   -180.00 -0.000002    0.00   -180.00   
    20. D(H   2,H   3,C   0,C   1)    180.00  0.000003   -0.00    180.00   
    ----------------------------------------------------------------------------

         *************************************************************
         *                GEOMETRY OPTIMIZATION CYCLE   2            *
         *************************************************************
---------------------------------
CARTESIAN COORDINATES (ANGSTROEM)
---------------------------------
  C     -5.213920   -0.674520   -1.064434
  C     -2.593630   -0.272276   -0.794839
  H     -6.370320   -0.542539   -2.481528
  H     -6.446534   -1.048067   -0.418084
  H     -1.609136    0.190640   -2.001622
  H     -1.488751   -0.323147    0.243818

----------------------------
CARTESIAN COORDINATES (A.U.)
----------------------------
  NO LB      ZA    FRAG     MASS         X           Y           Z
   0 C     6.0000    0    12.011   -9.852880   -1.274658   -2.011490
   1 C     6.0000    0    12.011   -4.901250   -0.514527   -1.502029
   2 H     1.0000    0     1.008  -12.038161   -1.025250   -4.689408
   3 H     1.0000    0     1.008  -12.182183   -1.980559   -0.790064
   4 H     1.0000    0     1.008   -3.040826    0.360257   -3.782518
   5 H     1.0000    0     1.008   -2.813331   -0.610660    0.460750

--------------------------------
INTERNAL COORDINATES (ANGSTROEM)
--------------------------------
 C      0   0   0     0.000000000000     0.00000000     0.00000000
 C      1   0   0     2.664657713192     0.00000000     0.00000000
 H      1   2   0     1.833803465459   133.42635840     0.00000000
 H      1   2   3     1.441056197789   146.60161001   180.00107460
 H      2   1   3     1.624759817507   124.31243826     0.00000000
 H      2   1   3     1.517285609425   141.28507793   179.99683562

---------------------------
INTERNAL COORDINATES (A.U.)
---------------------------
 C      0   0   0     0.000000000000     0.00000000     0.00000000
 C      1   0   0     5.035473318574     0.00000000     0.00000000
 H      1   2   0     3.465386333153   133.42635840     0.00000000
 H      1   2   3     2.723201557411   146.60161001   180.00107460
 H      2   1   3     3.070351088487   124.31243826     0.00000000
 H      2   1   3     2.867254268752   141.28507793   179.99683562

 One Electron integrals                  ... done
 Pre-screening matrix                    ... done

Diagonalization of the overlap matrix:
Smallest eigenvalue                        ... 1.111e-02
Time for diagonalization                   ...    0.002 sec
Threshold for overlap eigenvalues          ... 1.000e-08
Number of eigenvalues below threshold      ... 0
Time for construction of square roots      ...    0.003 sec
Total time needed                          ...    0.005 sec

-------------------
DFT GRID GENERATION
-------------------

General Integration Accuracy     IntAcc      ...  4.340
Radial Grid Type                 RadialGrid  ... Gauss-Chebyshev
Angular Grid (max. acc.)         AngularGrid ... Lebedev-110
Angular grid pruning method      GridPruning ... 3 (G Style)
Weight generation scheme         WeightScheme... Becke
Basis function cutoff            BFCut       ...    1.0000e-11
Integration weight cutoff        WCut        ...    1.0000e-14
Grids for H and He will be reduced by one unit

# of grid points (after initial pruning)     ...   6488 (   0.0 sec)
# of grid points (after weights+screening)   ...   6393 (   0.0 sec)
nearest neighbour list constructed           ...    0.0 sec
Grid point re-assignment to atoms done       ...    0.0 sec
Grid point division into batches done        ...    0.0 sec
Reduced shell lists constructed in    0.1 sec

Total number of grid points                  ...     6393
Total number of batches                      ...      104
Average number of points per batch           ...       61
Average number of grid points per atom       ...     1066
Average number of shells per batch           ...    27.96 (73.58%)
Average number of basis functions per batch  ...    65.26 (75.88%)
Average number of large shells per batch     ...    23.69 (84.71%)
Average number of large basis fcns per batch ...    55.08 (84.40%)
Maximum spatial batch extension              ...  20.94, 26.36, 20.29 au
Average spatial batch extension              ...   5.27,  6.21,  5.13 au

Time for grid setup =    0.093 sec

--------------
SCF ITERATIONS
--------------
ITER       Energy         Delta-E        Max-DP      RMS-DP      [F,P]     Damp
               ***  Starting incremental Fock matrix formation  ***
  0    -77.9446500960   0.000000000000 0.00244213  0.00014642  0.0151041 0.7000
                      *** Initiating the SOSCF procedure ***
                      *** Re-Reading the Fockian *** 
                      *** Removing any level shift *** 
ITER      Energy       Delta-E        Grad      Rot      Max-DP    RMS-DP
  1    -77.94502183  -0.0003717363  0.001872  0.001872  0.009594  0.000539
               *** Restarting incremental Fock matrix formation ***
  2    -77.94580594  -0.0007841093  0.002704  0.013085  0.014445  0.000572
  3    -77.94519753   0.0006084114  0.008020  0.010666  0.008281  0.000393
  4    -77.94589447  -0.0006969404  0.000864  0.003800  0.003057  0.000148
  5    -77.94584972   0.0000447540  0.001869  0.002680  0.002359  0.000109
  6    -77.94590404  -0.0000543238  0.000150  0.000636  0.000489  0.000025
  7    -77.94590408  -0.0000000385  0.000155  0.000329  0.000218  0.000014
  8    -77.94590471  -0.0000006339  0.000028  0.000116  0.000081  0.000005
  9    -77.94590471   0.0000000036  0.000027  0.000057  0.000041  0.000003
                  ***Gradient check signals convergence***
              ***Rediagonalizing the Fockian in SOSCF/NRSCF***

               *****************************************************
               *                     SUCCESS                       *
               *           SCF CONVERGED AFTER  10 CYCLES          *
               *****************************************************

Setting up the final grid:

General Integration Accuracy     IntAcc      ...  4.670
Radial Grid Type                 RadialGrid  ... Gauss-Chebyshev
Angular Grid (max. acc.)         AngularGrid ... Lebedev-302
Angular grid pruning method      GridPruning ... 3 (G Style)
Weight generation scheme         WeightScheme... Becke
Basis function cutoff            BFCut       ...    1.0000e-11
Integration weight cutoff        WCut        ...    1.0000e-14
Grids for H and He will be reduced by one unit

# of grid points (after initial pruning)     ...  26000 (   0.0 sec)
# of grid points (after weights+screening)   ...  25585 (   0.0 sec)
nearest neighbour list constructed           ...    0.0 sec
Grid point re-assignment to atoms done       ...    0.0 sec
Grid point division into batches done        ...    0.1 sec
Reduced shell lists constructed in    0.3 sec

Total number of grid points                  ...    25585
Total number of batches                      ...      403
Average number of points per batch           ...       63
Average number of grid points per atom       ...     4264
Average number of shells per batch           ...    25.06 (65.96%)
Average number of basis functions per batch  ...    57.97 (67.40%)
Average number of large shells per batch     ...    20.82 (83.06%)
Average number of large basis fcns per batch ...    48.01 (82.82%)
Maximum spatial batch extension              ...  17.42, 20.41, 18.87 au
Average spatial batch extension              ...   3.27,  3.61,  3.35 au

Final grid set up in    0.3 sec
Final integration                            ... done (   0.3 sec)
Change in XC energy                          ...    -0.000389740
Integrated number of electrons               ...    15.999987315
Previous integrated no of electrons          ...    15.999579934
Total Energy       :          -77.94629447 Eh           -2121.02650 eV
  Last Energy change         ...   -2.3981e-08  Tolerance :   1.0000e-08
  Last MAX-Density change    ...    3.5105e-06  Tolerance :   1.0000e-07
             **** THE GBW FILE WAS UPDATED (opt.gbw) ****
             **** DENSITY FILE WAS UPDATED (opt.scfp.tmp) ****
             **** ENERGY FILE WAS UPDATED (opt.en.tmp) ****
Total SCF time: 0 days 0 hours 0 min 3 sec 

-------------------------   --------------------
FINAL SINGLE POINT ENERGY       -77.946294473403
-------------------------   --------------------

------------------------------------------------------------------------------
                         ORCA SCF GRADIENT CALCULATION
------------------------------------------------------------------------------

Gradient of the Kohn-Sham DFT energy:
Kohn-Sham wavefunction type      ... RKS
Hartree-Fock exchange scaling    ...    0.000
Number of operators              ...    1
Number of atoms                  ...    6
Basis set dimensions             ...   86
Integral neglect threshold       ... 2.5e-11
Integral primitive cutoff        ... 2.5e-12

Nuclear repulsion gradient       ... done
One Electron Gradient            ... done
Pre-screening matrix             ... done
RI-J gradient                    ... done
Exchange-correlation gradient    ... done

------------------
CARTESIAN GRADIENT
------------------

   1   C   :    0.112908315    0.014383967    0.024016846
   2   C   :   -0.102481765   -0.018787783    0.002314417
   3   H   :   -0.040918361    0.003584801   -0.045839261
   4   H   :   -0.057246547   -0.015944607    0.024373678
   5   H   :    0.040382961    0.020113942   -0.054423601
   6   H   :    0.047355397   -0.003350320    0.049557922

Difference to translation invariance:
           :   -0.0000000000    0.0000000000    0.0000000000

Norm of the cartesian gradient     ...    0.2049725535
RMS gradient                       ...    0.0483124942
MAX gradient                       ...    0.1129083155

-------
TIMINGS
-------

Total SCF gradient time            ...        1.283 sec

One electron gradient       ....       0.016 sec  (  1.3%)
Prescreening matrices       ....       0.063 sec  (  4.9%)
RI-J Coulomb gradient       ....       0.210 sec  ( 16.4%)
XC gradient                 ....       0.809 sec  ( 63.1%)
------------------------------------------------------------------------------
                         ORCA GEOMETRY RELAXATION STEP
------------------------------------------------------------------------------

Reading the OPT-File                    .... done
Getting information on internals        .... done
Copying old internal coords+grads       .... done
Making the new internal coordinates     .... (new redundants).... done
Validating the new internal coordinates .... (new redundants).... done
Calculating the B-matrix                .... done
Calculating the G,G- and P matrices     .... done
Transforming gradient to internals      .... done
Projecting the internal gradient        .... done
Number of atoms                         ....   6
Number of internal coordinates          ....  20
Current Energy                          ....   -77.946294473 Eh
Current gradient norm                   ....     0.204972553 Eh/bohr
Maximum allowed component of the step   ....  0.300
Current trust radius                    ....  0.300
Updating the Hessian (BFGS)             .... done
Forming the augmented Hessian           .... done
Diagonalizing the augmented Hessian     .... done
Last element of RFO vector              ....  0.707208335
Lowest eigenvalues of augmented Hessian:
 -0.130161931  0.001502231  0.001502402  0.002425063  0.009766074
Length of the computed step             ....  0.999712784
Warning: the length of the step is outside the trust region - taking restricted step instead
The input lambda is                     ....    -0.130162
   iter:   1  x=   -0.189402  g=   15.351504 f(x)=     0.909426
   iter:   2  x=   -0.266073  g=    4.983888 f(x)=     0.382118
   iter:   3  x=   -0.349093  g=    1.798093 f(x)=     0.149278
   iter:   4  x=   -0.410660  g=    0.796260 f(x)=     0.049023
   iter:   5  x=   -0.432067  g=    0.489182 f(x)=     0.010472
   iter:   6  x=   -0.433889  g=    0.420026 f(x)=     0.000765
   iter:   7  x=   -0.433900  g=    0.414758 f(x)=     0.000005
   iter:   8  x=   -0.433900  g=    0.414725 f(x)=     0.000000
   iter:   9  x=   -0.433900  g=    0.414725 f(x)=    -0.000000
The output lambda is                    ....    -0.433900 (9 iterations)
The final length of the internal step   ....  0.300000000
Converting the step to cartesian space:
 Initial RMS(Int)=    0.0670820393
Transforming coordinates:
 Iter   0:  RMS(Cart)=    0.0653525029 RMS(Int)=    0.0670550251
 Iter   1:  RMS(Cart)=    0.0004430196 RMS(Int)=    0.0004786496
 Iter   2:  RMS(Cart)=    0.0000233301 RMS(Int)=    0.0000165968
 Iter   3:  RMS(Cart)=    0.0000012251 RMS(Int)=    0.0000007978
 Iter   4:  RMS(Cart)=    0.0000000672 RMS(Int)=    0.0000000446
done
Storing new coordinates                 .... done

                                .--------------------.
          ----------------------|Geometry convergence|-------------------------
          Item                value                   Tolerance       Converged
          ---------------------------------------------------------------------
          Energy change      -0.0391733408            0.0000050000      NO
          RMS gradient        0.0291326858            0.0001000000      NO
          MAX gradient        0.0706216759            0.0003000000      NO
          RMS step            0.0670820393            0.0020000000      NO
          MAX step            0.1654937774            0.0040000000      NO
          ........................................................
          Max(Bonds)      0.0876      Max(Angles)    2.84
          Max(Dihed)        0.00      Max(Improp)    0.00
          ---------------------------------------------------------------------

The optimization has not yet converged - more geometry cycles are needed


    ---------------------------------------------------------------------------
                         Redundant Internal Coordinates
                            (Angstroem and degrees)

        Definition                    Value    dE/dq     Step     New-Value
    ----------------------------------------------------------------------------
     1. B(C   1,C   0)                2.6647 -0.015062  0.0199    2.6846   
     2. B(H   2,C   0)                1.8338  0.050682 -0.0632    1.7706   
     3. B(H   3,H   2)                2.1258  0.014606 -0.0183    2.1076   
     4. B(H   3,C   0)                1.4411  0.056230 -0.0664    1.3746   
     5. B(H   4,C   1)                1.6248  0.070622 -0.0876    1.5372   
     6. B(H   5,C   1)                1.5173  0.068522 -0.0832    1.4341   
     7. A(C   1,C   0,H   3)          146.60  0.013356   -1.66    144.94   
     8. A(C   1,C   0,H   2)          133.43  0.009471   -1.18    132.24   
     9. A(H   2,C   0,H   3)           79.97 -0.022826    2.84     82.81   
    10. A(C   0,C   1,H   5)          141.29 -0.004127    0.51    141.79   
    11. A(H   4,C   1,H   5)           94.40  0.006836   -0.83     93.58   
    12. A(C   0,C   1,H   4)          124.31 -0.002710    0.32    124.63   
    13. A(C   0,H   2,H   3)           41.88  0.011633   -1.39     40.48   
    14. A(C   0,H   3,H   2)           58.15  0.011193   -1.45     56.70   
    15. D(H   4,C   1,C   0,H   3)    180.00  0.000010   -0.00    180.00   
    16. D(H   5,C   1,C   0,H   3)     -0.00  0.000009   -0.00     -0.00   
    17. D(H   4,C   1,C   0,H   2)     -0.00  0.000013   -0.00     -0.00   
    18. D(H   5,C   1,C   0,H   2)    180.00  0.000012   -0.00    180.00   
    19. D(H   3,H   2,C   0,C   1)   -180.00 -0.000002    0.00   -180.00   
    20. D(H   2,H   3,C   0,C   1)    180.00  0.000002   -0.00    180.00   
    ----------------------------------------------------------------------------

         *************************************************************
         *                GEOMETRY OPTIMIZATION CYCLE   3            *
         *************************************************************
---------------------------------
CARTESIAN COORDINATES (ANGSTROEM)
---------------------------------
  C     -5.231699   -0.675983   -1.071591
  C     -2.591830   -0.270793   -0.799716
  H     -6.318741   -0.537582   -2.463764
  H     -6.387122   -1.037301   -0.418904
  H     -1.653669    0.167055   -1.935972
  H     -1.539228   -0.315307    0.173257

----------------------------
CARTESIAN COORDINATES (A.U.)
----------------------------
  NO LB      ZA    FRAG     MASS         X           Y           Z
   0 C     6.0000    0    12.011   -9.886479   -1.277422   -2.025013
   1 C     6.0000    0    12.011   -4.897849   -0.511725   -1.511245
   2 H     1.0000    0     1.008  -11.940691   -1.015882   -4.655839
   3 H     1.0000    0     1.008  -12.069911   -1.960215   -0.791614
   4 H     1.0000    0     1.008   -3.124982    0.315688   -3.658458
   5 H     1.0000    0     1.008   -2.908720   -0.595843    0.327409

--------------------------------
INTERNAL COORDINATES (ANGSTROEM)
--------------------------------
 C      0   0   0     0.000000000000     0.00000000     0.00000000
 C      1   0   0     2.684586034251     0.00000000     0.00000000
 H      1   2   0     1.771711555983   132.15372971     0.00000000
 H      1   2   3     1.375337136906   144.85514215   180.00149391
 H      2   1   3     1.537184283165   124.63023552     0.00000000
 H      2   1   3     1.434095685100   141.79301401   179.99582935

---------------------------
INTERNAL COORDINATES (A.U.)
---------------------------
 C      0   0   0     0.000000000000     0.00000000     0.00000000
 C      1   0   0     5.073132387684     0.00000000     0.00000000
 H      1   2   0     3.348049629112   132.15372971     0.00000000
 H      1   2   3     2.599010530565   144.85514215   180.00149391
 H      2   1   3     2.904857312550   124.63023552     0.00000000
 H      2   1   3     2.710048094677   141.79301401   179.99582935

 One Electron integrals                  ... done
 Pre-screening matrix                    ... done

Diagonalization of the overlap matrix:
Smallest eigenvalue                        ... 9.873e-03
Time for diagonalization                   ...    0.002 sec
Threshold for overlap eigenvalues          ... 1.000e-08
Number of eigenvalues below threshold      ... 0
Time for construction of square roots      ...    0.003 sec
Total time needed                          ...    0.004 sec

-------------------
DFT GRID GENERATION
-------------------

General Integration Accuracy     IntAcc      ...  4.340
Radial Grid Type                 RadialGrid  ... Gauss-Chebyshev
Angular Grid (max. acc.)         AngularGrid ... Lebedev-110
Angular grid pruning method      GridPruning ... 3 (G Style)
Weight generation scheme         WeightScheme... Becke
Basis function cutoff            BFCut       ...    1.0000e-11
Integration weight cutoff        WCut        ...    1.0000e-14
Grids for H and He will be reduced by one unit

# of grid points (after initial pruning)     ...   6488 (   0.0 sec)
# of grid points (after weights+screening)   ...   6393 (   0.0 sec)
nearest neighbour list constructed           ...    0.0 sec
Grid point re-assignment to atoms done       ...    0.0 sec
Grid point division into batches done        ...    0.0 sec
Reduced shell lists constructed in    0.1 sec

Total number of grid points                  ...     6393
Total number of batches                      ...      103
Average number of points per batch           ...       62
Average number of grid points per atom       ...     1066
Average number of shells per batch           ...    27.99 (73.66%)
Average number of basis functions per batch  ...    65.14 (75.75%)
Average number of large shells per batch     ...    23.60 (84.30%)
Average number of large basis fcns per batch ...    54.52 (83.69%)
Maximum spatial batch extension              ...  20.97, 26.37, 20.24 au
Average spatial batch extension              ...   5.18,  6.20,  5.05 au

Time for grid setup =    0.062 sec

--------------
SCF ITERATIONS
--------------
ITER       Energy         Delta-E        Max-DP      RMS-DP      [F,P]     Damp
               ***  Starting incremental Fock matrix formation  ***
  0    -77.9830587076   0.000000000000 0.00282104  0.00015847  0.0175581 0.7000
                      *** Initiating the SOSCF procedure ***
                      *** Re-Reading the Fockian *** 
                      *** Removing any level shift *** 
ITER      Energy       Delta-E        Grad      Rot      Max-DP    RMS-DP
  1    -77.98350922  -0.0004505120  0.001976  0.001976  0.010329  0.000579
               *** Restarting incremental Fock matrix formation ***
  2    -77.98444424  -0.0009350203  0.002887  0.012674  0.017452  0.000617
  3    -77.98392046   0.0005237756  0.007908  0.010512  0.008450  0.000411
  4    -77.98454601  -0.0006255451  0.000969  0.003692  0.003644  0.000149
  5    -77.98450991   0.0000361041  0.001781  0.002503  0.002808  0.000107
  6    -77.98455660  -0.0000466980  0.000172  0.000516  0.000450  0.000022
  7    -77.98455675  -0.0000001433  0.000149  0.000249  0.000198  0.000011
  8    -77.98455721  -0.0000004588  0.000021  0.000085  0.000055  0.000004
                 **** Energy Check signals convergence ****
              ***Rediagonalizing the Fockian in SOSCF/NRSCF***

               *****************************************************
               *                     SUCCESS                       *
               *           SCF CONVERGED AFTER   9 CYCLES          *
               *****************************************************

Setting up the final grid:

General Integration Accuracy     IntAcc      ...  4.670
Radial Grid Type                 RadialGrid  ... Gauss-Chebyshev
Angular Grid (max. acc.)         AngularGrid ... Lebedev-302
Angular grid pruning method      GridPruning ... 3 (G Style)
Weight generation scheme         WeightScheme... Becke
Basis function cutoff            BFCut       ...    1.0000e-11
Integration weight cutoff        WCut        ...    1.0000e-14
Grids for H and He will be reduced by one unit

# of grid points (after initial pruning)     ...  26000 (   0.0 sec)
# of grid points (after weights+screening)   ...  25566 (   0.0 sec)
nearest neighbour list constructed           ...    0.0 sec
Grid point re-assignment to atoms done       ...    0.0 sec
Grid point division into batches done        ...    0.1 sec
Reduced shell lists constructed in    0.3 sec

Total number of grid points                  ...    25566
Total number of batches                      ...      403
Average number of points per batch           ...       63
Average number of grid points per atom       ...     4261
Average number of shells per batch           ...    25.28 (66.52%)
Average number of basis functions per batch  ...    58.38 (67.89%)
Average number of large shells per batch     ...    21.09 (83.42%)
Average number of large basis fcns per batch ...    48.48 (83.04%)
Maximum spatial batch extension              ...  17.86, 19.22, 18.78 au
Average spatial batch extension              ...   3.31,  3.61,  3.32 au

Final grid set up in    0.4 sec
Final integration                            ... done (   0.3 sec)
Change in XC energy                          ...    -0.000333964
Integrated number of electrons               ...    15.999993434
Previous integrated no of electrons          ...    15.999872860
Total Energy       :          -77.98489117 Eh           -2122.07677 eV
  Last Energy change         ...    2.0093e-09  Tolerance :   1.0000e-08
  Last MAX-Density change    ...    2.8147e-05  Tolerance :   1.0000e-07
             **** THE GBW FILE WAS UPDATED (opt.gbw) ****
             **** DENSITY FILE WAS UPDATED (opt.scfp.tmp) ****
             **** ENERGY FILE WAS UPDATED (opt.en.tmp) ****
Total SCF time: 0 days 0 hours 0 min 3 sec 

-------------------------   --------------------
FINAL SINGLE POINT ENERGY       -77.984891167438
-------------------------   --------------------

------------------------------------------------------------------------------
                         ORCA SCF GRADIENT CALCULATION
------------------------------------------------------------------------------

Gradient of the Kohn-Sham DFT energy:
Kohn-Sham wavefunction type      ... RKS
Hartree-Fock exchange scaling    ...    0.000
Number of operators              ...    1
Number of atoms                  ...    6
Basis set dimensions             ...   86
Integral neglect threshold       ... 2.5e-11
Integral primitive cutoff        ... 2.5e-12

Nuclear repulsion gradient       ... done
One Electron Gradient            ... done
Pre-screening matrix             ... done
RI-J gradient                    ... done
Exchange-correlation gradient    ... done

------------------
CARTESIAN GRADIENT
------------------

   1   C   :    0.108479304    0.012824689    0.027272291
   2   C   :   -0.103703037   -0.019541034    0.004536631
   3   H   :   -0.040630326    0.004420346   -0.049103873
   4   H   :   -0.051395577   -0.014968899    0.024603518
   5   H   :    0.041394955    0.020155509   -0.053833787
   6   H   :    0.045854682   -0.002890611    0.046525220

Difference to translation invariance:
           :    0.0000000000    0.0000000000    0.0000000000

Norm of the cartesian gradient     ...    0.2016895864
RMS gradient                       ...    0.0475386914
MAX gradient                       ...    0.1084793037

-------
TIMINGS
-------

Total SCF gradient time            ...        1.309 sec

One electron gradient       ....       0.018 sec  (  1.4%)
Prescreening matrices       ....       0.067 sec  (  5.1%)
RI-J Coulomb gradient       ....       0.243 sec  ( 18.6%)
XC gradient                 ....       0.801 sec  ( 61.2%)
------------------------------------------------------------------------------
                         ORCA GEOMETRY RELAXATION STEP
------------------------------------------------------------------------------

Reading the OPT-File                    .... done
Getting information on internals        .... done
Copying old internal coords+grads       .... done
Making the new internal coordinates     .... (new redundants).... done
Validating the new internal coordinates .... (new redundants).... done
Calculating the B-matrix                .... done
Calculating the G,G- and P matrices     .... done
Transforming gradient to internals      .... done
Projecting the internal gradient        .... done
Number of atoms                         ....   6
Number of internal coordinates          ....  20
Current Energy                          ....   -77.984891167 Eh
Current gradient norm                   ....     0.201689586 Eh/bohr
Maximum allowed component of the step   ....  0.300
Current trust radius                    ....  0.300
Updating the Hessian (BFGS)             .... done
Forming the augmented Hessian           .... done
Diagonalizing the augmented Hessian     .... done
Last element of RFO vector              ....  0.723536561
Lowest eigenvalues of augmented Hessian:
 -0.120315239  0.001502233  0.001502285  0.002425063  0.008209936
Length of the computed step             ....  0.954044476
Warning: the length of the step is outside the trust region - taking restricted step instead
The input lambda is                     ....    -0.120315
   iter:   1  x=   -0.179739  g=   13.802566 f(x)=     0.820201
   iter:   2  x=   -0.255607  g=    4.518828 f(x)=     0.342834
   iter:   3  x=   -0.335208  g=    1.660166 f(x)=     0.132150
   iter:   4  x=   -0.390453  g=    0.759953 f(x)=     0.041984
   iter:   5  x=   -0.407356  g=    0.488006 f(x)=     0.008249
   iter:   6  x=   -0.408497  g=    0.431352 f(x)=     0.000492
   iter:   7  x=   -0.408501  g=    0.427852 f(x)=     0.000002
   iter:   8  x=   -0.408501  g=    0.427838 f(x)=     0.000000
   iter:   9  x=   -0.408501  g=    0.427838 f(x)=    -0.000000
The output lambda is                    ....    -0.408501 (9 iterations)
The final length of the internal step   ....  0.300000000
Converting the step to cartesian space:
 Initial RMS(Int)=    0.0670820393
Transforming coordinates:
 Iter   0:  RMS(Cart)=    0.0643032374 RMS(Int)=    0.0670666496
 Iter   1:  RMS(Cart)=    0.0003941559 RMS(Int)=    0.0004851868
 Iter   2:  RMS(Cart)=    0.0000200284 RMS(Int)=    0.0000154262
 Iter   3:  RMS(Cart)=    0.0000011155 RMS(Int)=    0.0000007576
 Iter   4:  RMS(Cart)=    0.0000000654 RMS(Int)=    0.0000000453
done
Storing new coordinates                 .... done

                                .--------------------.
          ----------------------|Geometry convergence|-------------------------
          Item                value                   Tolerance       Converged
          ---------------------------------------------------------------------
          Energy change      -0.0385966940            0.0000050000      NO
          RMS gradient        0.0282384108            0.0001000000      NO
          MAX gradient        0.0707956408            0.0003000000      NO
          RMS step            0.0670820393            0.0020000000      NO
          MAX step            0.1686550239            0.0040000000      NO
          ........................................................
          Max(Bonds)      0.0892      Max(Angles)    2.88
          Max(Dihed)        0.00      Max(Improp)    0.00
          ---------------------------------------------------------------------

The optimization has not yet converged - more geometry cycles are needed


    ---------------------------------------------------------------------------
                         Redundant Internal Coordinates
                            (Angstroem and degrees)

        Definition                    Value    dE/dq     Step     New-Value
    ----------------------------------------------------------------------------
     1. B(C   1,C   0)                2.6846 -0.016804  0.0214    2.7060   
     2. B(H   2,C   0)                1.7717  0.050549 -0.0655    1.7062   
     3. B(H   3,H   2)                2.1061  0.017074 -0.0210    2.0852   
     4. B(H   3,C   0)                1.3753  0.049787 -0.0627    1.3126   
     5. B(H   4,C   1)                1.5372  0.070796 -0.0892    1.4479   
     6. B(H   5,C   1)                1.4341  0.065313 -0.0814    1.3527   
     7. A(C   1,C   0,H   3)          144.86  0.013148   -1.70    143.16   
     8. A(C   1,C   0,H   2)          132.15  0.009351   -1.19    130.97   
     9. A(H   2,C   0,H   3)           82.99 -0.022499    2.88     85.88   
    10. A(C   0,C   1,H   5)          141.79 -0.003441    0.44    142.23   
    11. A(H   4,C   1,H   5)           93.58  0.005134   -0.66     92.92   
    12. A(C   0,C   1,H   4)          124.63 -0.001693    0.22    124.85   
    13. A(C   0,H   2,H   3)           40.40  0.010299   -1.29     39.11   
    14. A(C   0,H   3,H   2)           56.61  0.012200   -1.59     55.01   
    15. D(H   4,C   1,C   0,H   3)    180.00  0.000005   -0.00    180.00   
    16. D(H   5,C   1,C   0,H   3)     -0.00  0.000003   -0.00     -0.00   
    17. D(H   4,C   1,C   0,H   2)     -0.00  0.000008   -0.00     -0.01   
    18. D(H   5,C   1,C   0,H   2)    180.00  0.000006   -0.00    179.99   
    19. D(H   3,H   2,C   0,C   1)   -180.00 -0.000002    0.00   -180.00   
    20. D(H   2,H   3,C   0,C   1)    180.00  0.000003   -0.00    180.00   
    ----------------------------------------------------------------------------

         *************************************************************
         *                GEOMETRY OPTIMIZATION CYCLE   4            *
         *************************************************************
---------------------------------
CARTESIAN COORDINATES (ANGSTROEM)
---------------------------------
  C     -5.248924   -0.677139   -1.079617
  C     -2.588040   -0.268773   -0.805342
  H     -6.266238   -0.532984   -2.443787
  H     -6.330655   -1.026728   -0.421127
  H     -1.699976    0.143560   -1.872039
  H     -1.588457   -0.307845    0.105222

----------------------------
CARTESIAN COORDINATES (A.U.)
----------------------------
  NO LB      ZA    FRAG     MASS         X           Y           Z
   0 C     6.0000    0    12.011   -9.919029   -1.279608   -2.040180
   1 C     6.0000    0    12.011   -4.890686   -0.507908   -1.521877
   2 H     1.0000    0     1.008  -11.841475   -1.007195   -4.618088
   3 H     1.0000    0     1.008  -11.963204   -1.940235   -0.795814
   4 H     1.0000    0     1.008   -3.212489    0.271289   -3.537641
   5 H     1.0000    0     1.008   -3.001749   -0.581742    0.198841

--------------------------------
INTERNAL COORDINATES (ANGSTROEM)
--------------------------------
 C      0   0   0     0.000000000000     0.00000000     0.00000000
 C      1   0   0     2.705973654465     0.00000000     0.00000000
 H      1   2   0     1.707825981620   130.84213010     0.00000000
 H      1   2   3     1.313759244498   143.03659267   180.00197237
 H      2   1   3     1.447935888980   124.84901138     0.00000000
 H      2   1   3     1.352708202251   142.23281728   179.99480938

---------------------------
INTERNAL COORDINATES (A.U.)
---------------------------
 C      0   0   0     0.000000000000     0.00000000     0.00000000
 C      1   0   0     5.113549132544     0.00000000     0.00000000
 H      1   2   0     3.227323389657   130.84213010     0.00000000
 H      1   2   3     2.482645178009   143.03659267   180.00197237
 H      2   1   3     2.736202289649   124.84901138     0.00000000
 H      2   1   3     2.556248041363   142.23281728   179.99480938

 One Electron integrals                  ... done
 Pre-screening matrix                    ... done

Diagonalization of the overlap matrix:
Smallest eigenvalue                        ... 8.376e-03
Time for diagonalization                   ...    0.002 sec
Threshold for overlap eigenvalues          ... 1.000e-08
Number of eigenvalues below threshold      ... 0
Time for construction of square roots      ...    0.005 sec
Total time needed                          ...    0.007 sec

-------------------
DFT GRID GENERATION
-------------------

General Integration Accuracy     IntAcc      ...  4.340
Radial Grid Type                 RadialGrid  ... Gauss-Chebyshev
Angular Grid (max. acc.)         AngularGrid ... Lebedev-110
Angular grid pruning method      GridPruning ... 3 (G Style)
Weight generation scheme         WeightScheme... Becke
Basis function cutoff            BFCut       ...    1.0000e-11
Integration weight cutoff        WCut        ...    1.0000e-14
Grids for H and He will be reduced by one unit

# of grid points (after initial pruning)     ...   6488 (   0.0 sec)
# of grid points (after weights+screening)   ...   6392 (   0.0 sec)
nearest neighbour list constructed           ...    0.0 sec
Grid point re-assignment to atoms done       ...    0.0 sec
Grid point division into batches done        ...    0.0 sec
Reduced shell lists constructed in    0.1 sec

Total number of grid points                  ...     6392
Total number of batches                      ...      103
Average number of points per batch           ...       62
Average number of grid points per atom       ...     1065
Average number of shells per batch           ...    28.46 (74.90%)
Average number of basis functions per batch  ...    66.21 (76.99%)
Average number of large shells per batch     ...    23.78 (83.55%)
Average number of large basis fcns per batch ...    54.72 (82.65%)
Maximum spatial batch extension              ...  21.04, 26.37, 19.81 au
Average spatial batch extension              ...   5.16,  6.26,  5.02 au

Time for grid setup =    0.071 sec

--------------
SCF ITERATIONS
--------------
ITER       Energy         Delta-E        Max-DP      RMS-DP      [F,P]     Damp
               ***  Starting incremental Fock matrix formation  ***
  0    -78.0195954697   0.000000000000 0.00320895  0.00017105  0.0198185 0.7000
                      *** Initiating the SOSCF procedure ***
                      *** Re-Reading the Fockian *** 
                      *** Removing any level shift *** 
ITER      Energy       Delta-E        Grad      Rot      Max-DP    RMS-DP
[...]
          Item                value                   Tolerance       Converged
          ---------------------------------------------------------------------
          Energy change       0.0000685883            0.0000050000      NO
          RMS gradient        0.0023364217            0.0001000000      NO
          MAX gradient        0.0081597494            0.0003000000      NO
          RMS step            0.0265587724            0.0020000000      NO
          MAX step            0.0800977082            0.0040000000      NO
          ........................................................
          Max(Bonds)      0.0064      Max(Angles)    1.21
          Max(Dihed)        4.59      Max(Improp)    0.00
          ---------------------------------------------------------------------

The optimization has not yet converged - more geometry cycles are needed


    ---------------------------------------------------------------------------
                         Redundant Internal Coordinates
                            (Angstroem and degrees)

        Definition                    Value    dE/dq     Step     New-Value
    ----------------------------------------------------------------------------
     1. B(C   1,C   0)                1.3396  0.008160 -0.0064    1.3331   
     2. B(H   2,C   0)                1.0936  0.001441 -0.0029    1.0907   
     3. B(H   3,H   2)                1.8526 -0.000665  0.0042    1.8568   
     4. B(H   3,C   0)                1.0880 -0.001864  0.0035    1.0916   
     5. B(H   4,C   1)                1.0867 -0.003648  0.0059    1.0926   
     6. B(H   5,C   1)                1.0907 -0.000926  0.0014    1.0921   
     7. A(C   1,C   0,H   3)          121.90 -0.000034   -0.10    121.80   
     8. A(C   1,C   0,H   2)          121.85  0.000318   -0.18    121.67   
     9. A(H   2,C   0,H   3)          116.24 -0.000283    0.07    116.32   
    10. A(C   0,C   1,H   5)          122.34  0.001395   -0.47    121.87   
    11. A(H   4,C   1,H   5)          115.66 -0.001806    1.21    116.87   
    12. A(C   0,C   1,H   4)          121.76  0.000102    0.22    121.98   
    13. A(C   0,H   2,H   3)           31.79 -0.000358    0.04     31.83   
    14. A(C   0,H   3,H   2)           31.97  0.000641   -0.11     31.86   
    15. D(H   4,C   1,C   0,H   3)    178.63 -0.001263    1.15    179.78   
    16. D(H   5,C   1,C   0,H   3)      4.58  0.002560   -4.59     -0.01   
    17. D(H   4,C   1,C   0,H   2)     -2.03 -0.001192    1.57     -0.45   
    18. D(H   5,C   1,C   0,H   2)   -176.07  0.002631   -4.17   -180.24   
    19. D(H   3,H   2,C   0,C   1)   -179.38 -0.000068   -0.76   -180.14   
    20. D(H   2,H   3,C   0,C   1)    179.38  0.000071    0.56    179.94   
    ----------------------------------------------------------------------------

         *************************************************************
         *                GEOMETRY OPTIMIZATION CYCLE  50            *
         *************************************************************
---------------------------------
CARTESIAN COORDINATES (ANGSTROEM)
---------------------------------
  C     -4.611854   -0.525642   -1.149440
  C     -3.294733   -0.363527   -1.022484
  H     -5.123503   -0.346379   -2.096718
  H     -5.236875   -0.843749   -0.312177
  H     -2.670623   -0.049847   -1.862645
  H     -2.784701   -0.540766   -0.073226

----------------------------
CARTESIAN COORDINATES (A.U.)
----------------------------
  NO LB      ZA    FRAG     MASS         X           Y           Z
   0 C     6.0000    0    12.011   -8.715142   -0.993319   -2.172128
   1 C     6.0000    0    12.011   -6.226143   -0.686967   -1.932215
   2 H     1.0000    0     1.008   -9.682018   -0.654561   -3.962222
   3 H     1.0000    0     1.008   -9.896260   -1.594454   -0.589930
   4 H     1.0000    0     1.008   -5.046747   -0.094198   -3.519888
   5 H     1.0000    0     1.008   -5.262322   -1.021900   -0.138377

--------------------------------
INTERNAL COORDINATES (ANGSTROEM)
--------------------------------
 C      0   0   0     0.000000000000     0.00000000     0.00000000
 C      1   0   0     1.333119487990     0.00000000     0.00000000
 H      1   2   0     1.091445661439   121.72452134     0.00000000
 H      1   2   3     1.092177954648   121.85801771   180.05535154
 H      2   1   3     1.092601026615   121.73843294   359.64579829
 H      2   1   3     1.092079468178   121.63228519   179.83517559

---------------------------
INTERNAL COORDINATES (A.U.)
---------------------------
 C      0   0   0     0.000000000000     0.00000000     0.00000000
 C      1   0   0     2.519230736095     0.00000000     0.00000000
 H      1   2   0     2.062533390177   121.72452134     0.00000000
 H      1   2   3     2.063917223791   121.85801771   180.05535154
 H      2   1   3     2.064716713944   121.73843294   359.64579829
 H      2   1   3     2.063731111335   121.63228519   179.83517559

 One Electron integrals                  ... done
 Pre-screening matrix                    ... done

Diagonalization of the overlap matrix:
Smallest eigenvalue                        ... 2.288e-04
Time for diagonalization                   ...    0.002 sec
Threshold for overlap eigenvalues          ... 1.000e-08
Number of eigenvalues below threshold      ... 0
Time for construction of square roots      ...    0.002 sec
Total time needed                          ...    0.004 sec

-------------------
DFT GRID GENERATION
-------------------

General Integration Accuracy     IntAcc      ...  4.340
Radial Grid Type                 RadialGrid  ... Gauss-Chebyshev
Angular Grid (max. acc.)         AngularGrid ... Lebedev-110
Angular grid pruning method      GridPruning ... 3 (G Style)
Weight generation scheme         WeightScheme... Becke
Basis function cutoff            BFCut       ...    1.0000e-11
Integration weight cutoff        WCut        ...    1.0000e-14
Grids for H and He will be reduced by one unit

# of grid points (after initial pruning)     ...   6488 (   0.0 sec)
# of grid points (after weights+screening)   ...   6325 (   0.0 sec)
nearest neighbour list constructed           ...    0.0 sec
Grid point re-assignment to atoms done       ...    0.0 sec
Grid point division into batches done        ...    0.0 sec
Reduced shell lists constructed in    0.1 sec

Total number of grid points                  ...     6325
Total number of batches                      ...      100
Average number of points per batch           ...       63
Average number of grid points per atom       ...     1054
Average number of shells per batch           ...    33.04 (86.95%)
Average number of basis functions per batch  ...    77.16 (89.72%)
Average number of large shells per batch     ...    29.69 (89.87%)
Average number of large basis fcns per batch ...    70.05 (90.79%)
Maximum spatial batch extension              ...  20.08, 25.91, 17.47 au
Average spatial batch extension              ...   5.02,  5.63,  4.59 au

Time for grid setup =    0.062 sec

--------------
SCF ITERATIONS
--------------
ITER       Energy         Delta-E        Max-DP      RMS-DP      [F,P]     Damp
               ***  Starting incremental Fock matrix formation  ***
                      *** Initiating the SOSCF procedure ***
                      *** Re-Reading the Fockian *** 
                      *** Removing any level shift *** 
ITER      Energy       Delta-E        Grad      Rot      Max-DP    RMS-DP
  0    -78.50067440 -78.5006744040  0.003208  0.003208  0.005797  0.000244
               *** Restarting incremental Fock matrix formation ***
  1    -78.50094228  -0.0002678720  0.000835  0.001683  0.001952  0.000097
  2    -78.50095799  -0.0000157096  0.000317  0.001149  0.000772  0.000034
  3    -78.50095710   0.0000008890  0.000592  0.001041  0.000562  0.000023
  4    -78.50095939  -0.0000022924  0.000220  0.000462  0.000348  0.000016
  5    -78.50095907   0.0000003167  0.000224  0.000224  0.000188  0.000010
  6    -78.50095977  -0.0000006984  0.000015  0.000033  0.000047  0.000001
  7    -78.50095977  -0.0000000014  0.000014  0.000018  0.000018  0.000001
                 **** Energy Check signals convergence ****
              ***Rediagonalizing the Fockian in SOSCF/NRSCF***

               *****************************************************
               *                     SUCCESS                       *
               *           SCF CONVERGED AFTER   8 CYCLES          *
               *****************************************************

Setting up the final grid:

General Integration Accuracy     IntAcc      ...  4.670
Radial Grid Type                 RadialGrid  ... Gauss-Chebyshev
Angular Grid (max. acc.)         AngularGrid ... Lebedev-302
Angular grid pruning method      GridPruning ... 3 (G Style)
Weight generation scheme         WeightScheme... Becke
Basis function cutoff            BFCut       ...    1.0000e-11
Integration weight cutoff        WCut        ...    1.0000e-14
Grids for H and He will be reduced by one unit

# of grid points (after initial pruning)     ...  26000 (   0.0 sec)
# of grid points (after weights+screening)   ...  25183 (   0.0 sec)
nearest neighbour list constructed           ...    0.0 sec
Grid point re-assignment to atoms done       ...    0.0 sec
Grid point division into batches done        ...    0.1 sec
Reduced shell lists constructed in    0.3 sec

Total number of grid points                  ...    25183
Total number of batches                      ...      398
Average number of points per batch           ...       63
Average number of grid points per atom       ...     4197
Average number of shells per batch           ...    30.33 (79.82%)
Average number of basis functions per batch  ...    71.04 (82.60%)
Average number of large shells per batch     ...    26.85 (88.54%)
Average number of large basis fcns per batch ...    63.48 (89.36%)
Maximum spatial batch extension              ...  19.40, 31.70, 19.42 au
Average spatial batch extension              ...   3.16,  3.57,  3.09 au

Final grid set up in    0.3 sec
Final integration                            ... done (   0.3 sec)
Change in XC energy                          ...     0.000429725
Integrated number of electrons               ...    15.999997471
Previous integrated no of electrons          ...    16.001230929
Total Energy       :          -78.50053005 Eh           -2136.10802 eV
  Last Energy change         ...   -2.2300e-09  Tolerance :   1.0000e-08
  Last MAX-Density change    ...    2.3882e-06  Tolerance :   1.0000e-07
             **** THE GBW FILE WAS UPDATED (opt.gbw) ****
             **** DENSITY FILE WAS UPDATED (opt.scfp.tmp) ****
             **** ENERGY FILE WAS UPDATED (opt.en.tmp) ****
Total SCF time: 0 days 0 hours 0 min 3 sec 

-------------------------   --------------------
FINAL SINGLE POINT ENERGY       -78.500530049193
-------------------------   --------------------

------------------------------------------------------------------------------
                         ORCA SCF GRADIENT CALCULATION
------------------------------------------------------------------------------

Gradient of the Kohn-Sham DFT energy:
Kohn-Sham wavefunction type      ... RKS
Hartree-Fock exchange scaling    ...    0.000
Number of operators              ...    1
Number of atoms                  ...    6
Basis set dimensions             ...   86
Integral neglect threshold       ... 2.5e-11
Integral primitive cutoff        ... 2.5e-12

Nuclear repulsion gradient       ... done
One Electron Gradient            ... done
Pre-screening matrix             ... done
RI-J gradient                    ... done
Exchange-correlation gradient    ... done

------------------
CARTESIAN GRADIENT
------------------

   1   C   :   -0.000456661   -0.000083354   -0.000236618
   2   C   :    0.000511695    0.000235855    0.000172368
   3   H   :    0.000098783    0.000041636    0.000482807
   4   H   :   -0.000234923   -0.000185855   -0.000115644
   5   H   :    0.000229809   -0.000049199   -0.000384476
   6   H   :   -0.000148702    0.000040917    0.000081562

Difference to translation invariance:
           :    0.0000000000    0.0000000000    0.0000000000

Norm of the cartesian gradient     ...    0.0010953707
RMS gradient                       ...    0.0002581814
MAX gradient                       ...    0.0005116949

-------
TIMINGS
-------

Total SCF gradient time            ...        1.576 sec

One electron gradient       ....       0.018 sec  (  1.1%)
Prescreening matrices       ....       0.079 sec  (  5.0%)
RI-J Coulomb gradient       ....       0.211 sec  ( 13.4%)
XC gradient                 ....       1.105 sec  ( 70.1%)
------------------------------------------------------------------------------
                         ORCA GEOMETRY RELAXATION STEP
------------------------------------------------------------------------------

Reading the OPT-File                    .... done
Getting information on internals        .... done
Copying old internal coords+grads       .... done
Making the new internal coordinates     .... (new redundants).... done
Validating the new internal coordinates .... (new redundants).... done
Calculating the B-matrix                .... done
Calculating the G,G- and P matrices     .... done
Transforming gradient to internals      .... done
Projecting the internal gradient        .... done
Number of atoms                         ....   6
Number of internal coordinates          ....  20
Current Energy                          ....   -78.500530049 Eh
Current gradient norm                   ....     0.001095371 Eh/bohr
Maximum allowed component of the step   ....  0.300
Current trust radius                    ....  0.300
Resetting Hessian after 50 BFGS Update Steps....
Build internal Hessian                  .... (Almloef) done
Updating Hessian with the last 5 steps  .... done
Forming the augmented Hessian           .... done
Diagonalizing the augmented Hessian     .... done
Last element of RFO vector              ....  0.999958790
Lowest eigenvalues of augmented Hessian:
 -0.000004569  0.027758101  0.040579046  0.057482155  0.108345492
Length of the computed step             ....  0.009078812
The final length of the internal step   ....  0.009078812
Converting the step to cartesian space:
 Initial RMS(Int)=    0.0020300842
Transforming coordinates:
 Iter   0:  RMS(Cart)=    0.0018331810 RMS(Int)=    1.4036712727
 Iter   1:  RMS(Cart)=    0.0000021390 RMS(Int)=    0.0000027693
 Iter   2:  RMS(Cart)=    0.0000000059 RMS(Int)=    0.0000000072
done
Storing new coordinates                 .... done

                                .--------------------.
          ----------------------|Geometry convergence|-------------------------
          Item                value                   Tolerance       Converged
          ---------------------------------------------------------------------
          Energy change      -0.0003340298            0.0000050000      NO
          RMS gradient        0.0002123438            0.0001000000      NO
          MAX gradient        0.0006009023            0.0003000000      NO
          RMS step            0.0020300842            0.0020000000      NO
          MAX step            0.0057694082            0.0040000000      NO
          ........................................................
          Max(Bonds)      0.0009      Max(Angles)    0.05
          Max(Dihed)        0.33      Max(Improp)    0.00
          ---------------------------------------------------------------------

The optimization has not yet converged - more geometry cycles are needed


    ---------------------------------------------------------------------------
                         Redundant Internal Coordinates
                            (Angstroem and degrees)

        Definition                    Value    dE/dq     Step     New-Value
    ----------------------------------------------------------------------------
     1. B(C   1,C   0)                1.3331  0.000601 -0.0005    1.3326   
     2. B(H   2,C   0)                1.0914 -0.000293  0.0007    1.0921   
     3. B(H   3,H   2)                1.8560 -0.000167  0.0009    1.8570   
     4. B(H   3,C   0)                1.0922  0.000218 -0.0001    1.0920   
     5. B(H   4,C   1)                1.0926  0.000412 -0.0006    1.0920   
     6. B(H   5,C   1)                1.0921 -0.000004  0.0000    1.0921   
     7. A(C   1,C   0,H   3)          121.86  0.000198   -0.05    121.81   
     8. A(C   1,C   0,H   2)          121.72 -0.000103    0.00    121.73   
     9. A(H   2,C   0,H   3)          116.42 -0.000095    0.05    116.47   
    10. A(C   0,C   1,H   5)          121.63 -0.000190    0.03    121.67   
    11. A(H   4,C   1,H   5)          116.63  0.000133   -0.03    116.60   
    12. A(C   0,C   1,H   4)          121.74  0.000057   -0.02    121.72   
    13. A(C   0,H   2,H   3)           31.80  0.000124   -0.04     31.77   
    14. A(C   0,H   3,H   2)           31.78 -0.000029   -0.01     31.77   
    15. D(H   4,C   1,C   0,H   3)    179.70 -0.000183    0.33    180.03   
    16. D(H   5,C   1,C   0,H   3)     -0.11 -0.000070    0.19      0.08   
    17. D(H   4,C   1,C   0,H   2)     -0.35 -0.000185    0.26     -0.09   
    18. D(H   5,C   1,C   0,H   2)    179.84 -0.000073    0.12    179.96   
    19. D(H   3,H   2,C   0,C   1)   -179.95  0.000002    0.07   -179.88   
    20. D(H   2,H   3,C   0,C   1)    179.95 -0.000003   -0.07    179.88   
    ----------------------------------------------------------------------------




    ----------------------------------------------------------------------------
                                  WARNING !!!
       The optimization did not converge but reached the maximum number of
       optimization cycles.
       Please check your results very carefully.
    ----------------------------------------------------------------------------



                            ***************************************
                            *     ORCA property calculations      *
                            ***************************************

                                    ---------------------
                                    Active property flags
                                    ---------------------
   (+) Dipole Moment


------------------------------------------------------------------------------
                       ORCA ELECTRIC PROPERTIES CALCULATION
------------------------------------------------------------------------------

Dipole Moment Calculation                       ... on
Quadrupole Moment Calculation                   ... off
Polarizability Calculation                      ... off
GBWName                                         ... opt.gbw
Electron density file                           ... opt.scfp.tmp
The origin for moment calculation is the CENTER OF MASS  = (-7.470846, -0.841135 -2.052433)

-------------
DIPOLE MOMENT
-------------
                                X             Y             Z
Electronic contribution:      0.00039      -0.00097      -0.00029
Nuclear contribution   :     -0.00193       0.00076      -0.00009
                        -----------------------------------------
Total Dipole Moment    :     -0.00153      -0.00021      -0.00038
                        -----------------------------------------
Magnitude (a.u.)       :      0.00159
Magnitude (Debye)      :      0.00404


Timings for individual modules:

Sum of individual times         ...      526.668 sec (=   8.778 min)
GTO integral calculation        ...       13.212 sec (=   0.220 min)   2.5 %
SCF iterations                  ...      217.648 sec (=   3.627 min)  41.3 %
SCF Gradient evaluation         ...      293.138 sec (=   4.886 min)  55.7 %
Geometry relaxation             ...        2.670 sec (=   0.044 min)   0.5 %
                             ****ORCA TERMINATED NORMALLY****
TOTAL RUN TIME: 0 days 0 hours 8 minutes 48 seconds 803 msec
