
                                 *****************
                                 * O   R   C   A *
                                 *****************

           --- An Ab Initio, DFT and Semiempirical electronic structure package ---

                  #######################################################
                  #                        -***-                        #
                  #  Department of molecular theory and spectroscopy    #
                  #              Directorship: Frank Neese              #
                  # Max Planck Institute for Chemical Energy Conversion #
                  #                  D-45470 Muelheim/Ruhr              #
                  #                       Germany                       #
                  #                                                     #
                  #                  All rights reserved                #
                  #                        -***-                        #
                  #######################################################


                         Program Version 4.0.1.2 - RELEASE -


 With contributions from (in alphabetic order):
   Daniel Aravena         : Magnetic Properties
   Michael Atanasov       : Ab Initio Ligand Field Theory
   Ute Becker             : Parallelization
   Martin Brehm           : Molecular dynamics
   Dmytro Bykov           : SCF Hessian
   Vijay G. Chilkuri      : MRCI spin determinant printing
   Dipayan Datta          : RHF DLPNO-CCSD density
   Achintya Kumar Dutta   : EOM-CC, STEOM-CC
   Dmitry Ganyushin       : Spin-Orbit,Spin-Spin,Magnetic field MRCI
   Yang Guo               : DLPNO-NEVPT2, CIM, IAO-localization
   Andreas Hansen         : Spin unrestricted coupled pair/coupled cluster methods
   Lee Huntington         : MR-EOM, pCC
   Robert Izsak           : Overlap fitted RIJCOSX, COSX-SCS-MP3, EOM
   Christian Kollmar      : KDIIS, OOCD, Brueckner-CCSD(T), CCSD density
   Simone Kossmann        : Meta GGA functionals, TD-DFT gradient, OOMP2, MP2 Hessian
   Martin Krupicka        : AUTO-CI
   Dagmar Lenk            : GEPOL surface
   Dimitrios Liakos       : Extrapolation schemes; parallel MDCI
   Dimitrios Manganas     : ROCIS; embedding schemes
   Dimitrios Pantazis     : SARC Basis sets
   Taras Petrenko         : DFT Hessian,TD-DFT gradient, ASA, ECA, R-Raman, ABS, FL, XAS/XES, NRVS
   Peter Pinski           : DLPNO-MP2
   Christoph Reimann      : Effective Core Potentials
   Marius Retegan         : Local ZFS, SOC
   Christoph Riplinger    : Optimizer, TS searches, QM/MM, DLPNO-CCSD(T), (RO)-DLPNO pert. Triples
   Tobias Risthaus        : Range-separated hybrids, TD-DFT gradient, RPA, STAB
   Michael Roemelt        : Restricted open shell CIS
   Masaaki Saitow         : Open-shell DLPNO
   Barbara Sandhoefer     : DKH picture change effects
   Kantharuban Sivalingam : CASSCF convergence, NEVPT2, FIC-MRCI
   Georgi Stoychev        : AutoAux
   Boris Wezisla          : Elementary symmetry handling
   Frank Wennmohs         : Technical directorship


 We gratefully acknowledge several colleagues who have allowed us to
 interface, adapt or use parts of their codes:
   Stefan Grimme, W. Hujo, H. Kruse,             : VdW corrections, initial TS optimization,
                  C. Bannwarth                     DFT functionals, gCP, sTDA/sTD-DF
   Ed Valeev                                     : LibInt (2-el integral package), F12 methods
   Garnet Chan, S. Sharma, J. Yang, R. Olivares  : DMRG
   Ulf Ekstrom                                   : XCFun DFT Library
   Mihaly Kallay                                 : mrcc  (arbitrary order and MRCC methods)
   Andreas Klamt, Michael Diedenhofen            : otool_cosmo (COSMO solvation model)
   Jiri Pittner, Ondrej Demel                    : Mk-CCSD
   Frank Weinhold                                : gennbo (NPA and NBO analysis)
   Christopher J. Cramer and Donald G. Truhlar   : smd solvation model


 Your calculation uses the libint2 library for the computation of 2-el integrals
 For citations please refer to: http://libint.valeyev.net

 This ORCA versions uses:
   CBLAS   interface :  Fast vector & matrix operations
   LAPACKE interface :  Fast linear algebra routines
   SCALAPACK package :  Parallel linear algebra routines




*****************************************
The coordinations will be read from file: opt.xyz
*****************************************


Your calculation utilizes the basis: def2-TZVP
   F. Weigend and R. Ahlrichs, Phys. Chem. Chem. Phys. 7, 3297 (2005).

Your calculation utilizes the auxiliary basis: def2/J
   F. Weigend, Phys. Chem. Chem. Phys. 8, 1057 (2006).

================================================================================
                                        WARNINGS
                       Please study these warnings very carefully!
================================================================================

Warning: TCutStore was < 0. Adjusted to Thresh (uncritical)

INFO   : the flag for use of LIBINT has been found!

================================================================================
                                       INPUT FILE
================================================================================
NAME = freq.inp
|  1> # avogadro generated ORCA input file 
|  2> # Basic Mode
|  3> # 
|  4> ! PBE FREQ def2-TZVP
|  5> 
|  6> * xyzfile 0 1 opt.xyz
|  7> 
|  8> 
|  9>                          ****END OF INPUT****
================================================================================

                       ****************************
                       * Single Point Calculation *
                       ****************************

---------------------------------
CARTESIAN COORDINATES (ANGSTROEM)
---------------------------------
  C     -1.130089    0.866911   -0.006454
  O     -2.293291    0.856793    0.131161
  O      0.033140    0.877086   -0.143956

----------------------------
CARTESIAN COORDINATES (A.U.)
----------------------------
  NO LB      ZA    FRAG     MASS         X           Y           Z
   0 C     6.0000    0    12.011   -2.135559    1.638223   -0.012197
   1 O     8.0000    0    15.999   -4.333692    1.619104    0.247858
   2 O     8.0000    0    15.999    0.062626    1.657453   -0.272038

--------------------------------
INTERNAL COORDINATES (ANGSTROEM)
--------------------------------
 C      0   0   0     0.000000000000     0.00000000     0.00000000
 O      1   0   0     1.171357372664     0.00000000     0.00000000
 O      1   2   0     1.171372240168   179.99368996     0.00000000

---------------------------
INTERNAL COORDINATES (A.U.)
---------------------------
 C      0   0   0     0.000000000000     0.00000000     0.00000000
 O      1   0   0     2.213544639285     0.00000000     0.00000000
 O      1   2   0     2.213572734795   179.99368996     0.00000000

---------------------
BASIS SET INFORMATION
---------------------
There are 2 groups of distinct atoms

 Group   1 Type C   : 11s6p2d1f contracted to 5s3p2d1f pattern {62111/411/11/1}
 Group   2 Type O   : 11s6p2d1f contracted to 5s3p2d1f pattern {62111/411/11/1}

Atom   0C    basis set group =>   1
Atom   1O    basis set group =>   2
Atom   2O    basis set group =>   2
-------------------------------
AUXILIARY BASIS SET INFORMATION
-------------------------------
There are 2 groups of distinct atoms

 Group   1 Type C   : 12s5p4d2f1g contracted to 6s4p3d1f1g pattern {711111/2111/211/2/1}
 Group   2 Type O   : 12s5p4d2f1g contracted to 6s4p3d1f1g pattern {711111/2111/211/2/1}

Atom   0C    basis set group =>   1
Atom   1O    basis set group =>   2
Atom   2O    basis set group =>   2
------------------------------------------------------------------------------
                           ORCA GTO INTEGRAL CALCULATION
                           -- RI-GTO INTEGRALS CHOSEN --
------------------------------------------------------------------------------

                         BASIS SET STATISTICS AND STARTUP INFO

Gaussian basis set:
 # of primitive gaussian shells          ...   60
 # of primitive gaussian functions       ...  138
 # of contracted shells                  ...   33
 # of contracted basis functions         ...   93
 Highest angular momentum                ...    3
 Maximum contraction depth               ...    6
Auxiliary gaussian basis set:
 # of primitive gaussian shells          ...   72
 # of primitive gaussian functions       ...  210
 # of contracted shells                  ...   45
 # of contracted aux-basis functions     ...  147
 Highest angular momentum                ...    4
 Maximum contraction depth               ...    7
Ratio of auxiliary to basis functions    ...  1.58
Integral package used                  ... LIBINT
 One Electron integrals                  ... done
 Ordering auxiliary basis shells         ... done
 Integral threshhold             Thresh  ...  1.000e-10
 Primitive cut-off               TCut    ...  1.000e-11
 Pre-screening matrix                    ... done
 Shell pair data                         ... 
 Ordering of the shell pairs             ... done (   0.000 sec) 551 of 561 pairs
 Determination of significant pairs      ... done (   0.000 sec)
 Creation of shell pair data             ... done (   0.000 sec)
 Storage of shell pair data              ... done (   0.002 sec)
 Shell pair data done in (   0.003 sec)
 Computing two index integrals           ... done
 Cholesky decomposition of the V-matrix  ... done


Timings:
 Total evaluation time                   ...   0.187 sec (  0.003 min)
 One electron matrix time                ...   0.009 sec (  0.000 min) =  4.7%
 Schwartz matrix evaluation time         ...   0.147 sec (  0.002 min) = 78.5%
 Two index repulsion integral time       ...   0.003 sec (  0.000 min) =  1.4%
 Cholesky decomposition of V             ...   0.002 sec (  0.000 min) =  1.3%
 Three index repulsion integral time     ...   0.000 sec (  0.000 min) =  0.0%

-------------------------------------------------------------------------------
                                 ORCA SCF
-------------------------------------------------------------------------------

------------
SCF SETTINGS
------------
Hamiltonian:
 Density Functional     Method          .... DFT(GTOs)
 Exchange Functional    Exchange        .... PBE
   PBE kappa parameter   XKappa         ....  0.804000
   PBE mue parameter    XMuePBE         ....  0.219520
 Correlation Functional Correlation     .... PBE
   PBE beta parameter  CBetaPBE         ....  0.066725
 LDA part of GGA corr.  LDAOpt          .... PW91-LDA
 Gradients option       PostSCFGGA      .... off
   NL short-range parameter             ....  6.400000
 RI-approximation to the Coulomb term is turned on
   Number of auxiliary basis functions  .... 147


General Settings:
 Integral files         IntName         .... freq
 Hartree-Fock type      HFTyp           .... RHF
 Total Charge           Charge          ....    0
 Multiplicity           Mult            ....    1
 Number of Electrons    NEL             ....   22
 Basis Dimension        Dim             ....   93
 Nuclear Repulsion      ENuc            ....     57.8254377450 Eh

Convergence Acceleration:
 DIIS                   CNVDIIS         .... on
   Start iteration      DIISMaxIt       ....    12
   Startup error        DIISStart       ....  0.200000
   # of expansion vecs  DIISMaxEq       ....     5
   Bias factor          DIISBfac        ....   1.050
   Max. coefficient     DIISMaxC        ....  10.000
 Newton-Raphson         CNVNR           .... off
 SOSCF                  CNVSOSCF        .... on
   Start iteration      SOSCFMaxIt      ....   150
   Startup grad/error   SOSCFStart      ....  0.003300
 Level Shifting         CNVShift        .... on
   Level shift para.    LevelShift      ....    0.2500
   Turn off err/grad.   ShiftErr        ....    0.0010
 Zerner damping         CNVZerner       .... off
 Static damping         CNVDamp         .... on
   Fraction old density DampFac         ....    0.7000
   Max. Damping (<1)    DampMax         ....    0.9800
   Min. Damping (>=0)   DampMin         ....    0.0000
   Turn off err/grad.   DampErr         ....    0.1000
 Fernandez-Rico         CNVRico         .... off

SCF Procedure:
 Maximum # iterations   MaxIter         ....   125
 SCF integral mode      SCFMode         .... Direct
   Integral package                     .... LIBINT
 Reset frequeny         DirectResetFreq ....    20
 Integral Threshold     Thresh          ....  1.000e-10 Eh
 Primitive CutOff       TCut            ....  1.000e-11 Eh

Convergence Tolerance:
 Convergence Check Mode ConvCheckMode   .... Total+1el-Energy
 Convergence forced     ConvForced      .... 0
 Energy Change          TolE            ....  1.000e-06 Eh
 1-El. energy change                    ....  1.000e-03 Eh
 Orbital Gradient       TolG            ....  5.000e-05
 Orbital Rotation angle TolX            ....  5.000e-05
 DIIS Error             TolErr          ....  1.000e-06


Diagonalization of the overlap matrix:
Smallest eigenvalue                        ... 5.104e-04
Time for diagonalization                   ...    0.004 sec
Threshold for overlap eigenvalues          ... 1.000e-08
Number of eigenvalues below threshold      ... 0
Time for construction of square roots      ...    0.002 sec
Total time needed                          ...    0.006 sec

-------------------
DFT GRID GENERATION
-------------------

General Integration Accuracy     IntAcc      ...  4.340
Radial Grid Type                 RadialGrid  ... Gauss-Chebyshev
Angular Grid (max. acc.)         AngularGrid ... Lebedev-110
Angular grid pruning method      GridPruning ... 3 (G Style)
Weight generation scheme         WeightScheme... Becke
Basis function cutoff            BFCut       ...    1.0000e-10
Integration weight cutoff        WCut        ...    1.0000e-14
Grids for H and He will be reduced by one unit

# of grid points (after initial pruning)     ...   5088 (   0.0 sec)
# of grid points (after weights+screening)   ...   5034 (   0.0 sec)
nearest neighbour list constructed           ...    0.0 sec
Grid point re-assignment to atoms done       ...    0.0 sec
Grid point division into batches done        ...    0.0 sec
Reduced shell lists constructed in    0.0 sec

Total number of grid points                  ...     5034
Total number of batches                      ...       81
Average number of points per batch           ...       62
Average number of grid points per atom       ...     1678
Average number of shells per batch           ...    26.04 (78.90%)
Average number of basis functions per batch  ...    77.18 (82.99%)
Average number of large shells per batch     ...    23.00 (88.34%)
Average number of large basis fcns per batch ...    67.76 (87.79%)
Maximum spatial batch extension              ...  18.14, 25.65, 25.13 au
Average spatial batch extension              ...   4.23,  6.18,  5.34 au

Time for grid setup =    0.051 sec

------------------------------
INITIAL GUESS: MODEL POTENTIAL
------------------------------
Loading Hartree-Fock densities                     ... done
Calculating cut-offs                               ... done
Setting up the integral package                    ... done
Initializing the effective Hamiltonian             ... done
Starting the Coulomb interaction                   ... done (   0.0 sec)
Reading the grid                                   ... done
Mapping shells                                     ... done
Starting the XC term evaluation                    ... done (   0.1 sec)
  promolecular density results
     # of electrons  =     22.000040333
     EX              =    -21.378092539
     EC              =     -0.730805727
     EX+EC           =    -22.108898266
Transforming the Hamiltonian                       ... done (   0.0 sec)
Diagonalizing the Hamiltonian                      ... done (   0.0 sec)
Back transforming the eigenvectors                 ... done (   0.0 sec)
Now organizing SCF variables                       ... done
                      ------------------
                      INITIAL GUESS DONE (   0.2 sec)
                      ------------------
--------------
SCF ITERATIONS
--------------
ITER       Energy         Delta-E        Max-DP      RMS-DP      [F,P]     Damp
               ***  Starting incremental Fock matrix formation  ***
  0   -188.3688452167   0.000000000000 0.04151346  0.00204066  0.2117279 0.7000
  1   -188.4283185926  -0.059473375946 0.02225379  0.00100349  0.0666006 0.7000
                               ***Turning on DIIS***
  2   -188.4409834232  -0.012664830588 0.02994639  0.00102273  0.0223827 0.0000
  3   -188.4771032005  -0.036119777290 0.01287074  0.00067411  0.0295999 0.0000
  4   -188.4781077403  -0.001004539806 0.01014867  0.00027975  0.0238195 0.0000
  5   -188.4792477746  -0.001140034334 0.00162450  0.00007107  0.0057575 0.0000
                      *** Initiating the SOSCF procedure ***
                           *** Shutting down DIIS ***
                      *** Re-Reading the Fockian *** 
                      *** Removing any level shift *** 
ITER      Energy       Delta-E        Grad      Rot      Max-DP    RMS-DP
  6   -188.47932766  -0.0000798806  0.000417  0.000417  0.000427  0.000017
               *** Restarting incremental Fock matrix formation ***
  7   -188.47933329  -0.0000056336  0.000321  0.000716  0.000426  0.000018
  8   -188.47933159   0.0000016979  0.000665  0.000437  0.000285  0.000012
                  ***Gradient check signals convergence***
              ***Rediagonalizing the Fockian in SOSCF/NRSCF***

               *****************************************************
               *                     SUCCESS                       *
               *           SCF CONVERGED AFTER   9 CYCLES          *
               *****************************************************

Setting up the final grid:

General Integration Accuracy     IntAcc      ...  4.670
Radial Grid Type                 RadialGrid  ... Gauss-Chebyshev
Angular Grid (max. acc.)         AngularGrid ... Lebedev-302
Angular grid pruning method      GridPruning ... 3 (G Style)
Weight generation scheme         WeightScheme... Becke
Basis function cutoff            BFCut       ...    1.0000e-10
Integration weight cutoff        WCut        ...    1.0000e-14
Grids for H and He will be reduced by one unit

# of grid points (after initial pruning)     ...  18636 (   0.0 sec)
# of grid points (after weights+screening)   ...  18420 (   0.0 sec)
nearest neighbour list constructed           ...    0.0 sec
Grid point re-assignment to atoms done       ...    0.0 sec
Grid point division into batches done        ...    0.1 sec
Reduced shell lists constructed in    0.2 sec

Total number of grid points                  ...    18420
Total number of batches                      ...      290
Average number of points per batch           ...       63
Average number of grid points per atom       ...     6140
Average number of shells per batch           ...    23.12 (70.06%)
Average number of basis functions per batch  ...    68.32 (73.46%)
Average number of large shells per batch     ...    20.25 (87.57%)
Average number of large basis fcns per batch ...    59.60 (87.24%)
Maximum spatial batch extension              ...  18.82, 23.35, 20.46 au
Average spatial batch extension              ...   3.12,  3.89,  3.77 au

Final grid set up in    0.2 sec
Final integration                            ... done (   0.2 sec)
Change in XC energy                          ...     0.000010372
Integrated number of electrons               ...    21.999989954
Previous integrated no of electrons          ...    21.999970110

----------------
TOTAL SCF ENERGY
----------------

Total Energy       :         -188.47932334 Eh           -5128.78313 eV

Components:
Nuclear Repulsion  :           57.82543775 Eh            1573.51016 eV
Electronic Energy  :         -246.30476108 Eh           -6702.29329 eV
One Electron Energy:         -371.88113449 Eh          -10119.40013 eV
Two Electron Energy:          125.57637341 Eh            3417.10684 eV

Virial components:
Potential Energy   :         -376.30134202 Eh          -10239.68009 eV
Kinetic Energy     :          187.82201868 Eh            5110.89696 eV
Virial Ratio       :            2.00349961


DFT components:
N(Alpha)           :       10.999994976782 electrons
N(Beta)            :       10.999994976782 electrons
N(Total)           :       21.999989953563 electrons
E(X)               :      -21.615090021367 Eh       
E(C)               :       -0.738949604178 Eh       
E(XC)              :      -22.354039625544 Eh       

---------------
SCF CONVERGENCE
---------------

  Last Energy change         ...   -2.1191e-06  Tolerance :   1.0000e-06
  Last MAX-Density change    ...    1.5054e-05  Tolerance :   1.0000e-05
  Last RMS-Density change    ...    5.2404e-07  Tolerance :   1.0000e-06
  Last Orbital Gradient      ...    6.0359e-06  Tolerance :   5.0000e-05
  Last Orbital Rotation      ...    7.0017e-06  Tolerance :   5.0000e-05

             **** THE GBW FILE WAS UPDATED (freq.gbw) ****
             **** DENSITY FILE WAS UPDATED (freq.scfp.tmp) ****
             **** ENERGY FILE WAS UPDATED (freq.en.tmp) ****
----------------
ORBITAL ENERGIES
----------------

  NO   OCC          E(Eh)            E(eV) 
   0   2.0000     -18.830943      -512.4160 
   1   2.0000     -18.830929      -512.4156 
   2   2.0000     -10.058600      -273.7084 
   3   2.0000      -1.066664       -29.0254 
   4   2.0000      -1.029707       -28.0198 
   5   2.0000      -0.506558       -13.7841 
   6   2.0000      -0.464297       -12.6342 
   7   2.0000      -0.463748       -12.6192 
   8   2.0000      -0.463747       -12.6192 
   9   2.0000      -0.331569        -9.0224 
  10   2.0000      -0.331566        -9.0224 
  11   0.0000      -0.015132        -0.4118 
  12   0.0000      -0.015113        -0.4112 
  13   0.0000      -0.007862        -0.2139 
  14   0.0000       0.149167         4.0590 
  15   0.0000       0.166918         4.5421 
  16   0.0000       0.167335         4.5534 
  17   0.0000       0.240654         6.5485 
  18   0.0000       0.332952         9.0601 
  19   0.0000       0.390619        10.6293 
  20   0.0000       0.398048        10.8314 
  21   0.0000       0.398183        10.8351 
  22   0.0000       0.550360        14.9761 
  23   0.0000       0.550612        14.9829 
  24   0.0000       0.558368        15.1940 
  25   0.0000       0.558566        15.1993 
  26   0.0000       0.676428        18.4066 
  27   0.0000       0.777760        21.1639 
  28   0.0000       0.833254        22.6740 
  29   0.0000       0.907638        24.6981 
  30   0.0000       0.907728        24.7005 
  31   0.0000       1.222297        33.2604 
  32   0.0000       1.254868        34.1467 
  33   0.0000       1.254965        34.1493 
  34   0.0000       1.298034        35.3213 
  35   0.0000       1.316674        35.8285 
  36   0.0000       1.316687        35.8289 
  37   0.0000       1.581021        43.0218 
  38   0.0000       1.581119        43.0244 
  39   0.0000       1.630031        44.3554 
  40   0.0000       1.809572        49.2410 
  41   0.0000       1.809612        49.2420 
  42   0.0000       1.940640        52.8075 
  43   0.0000       1.940690        52.8089 
  44   0.0000       2.132192        58.0199 
  45   0.0000       2.322946        63.2106 
  46   0.0000       2.508545        68.2610 
  47   0.0000       2.508833        68.2688 
  48   0.0000       2.576076        70.0986 
  49   0.0000       2.576320        70.1052 
  50   0.0000       2.641244        71.8719 
  51   0.0000       2.641269        71.8726 
  52   0.0000       2.752518        74.8998 
  53   0.0000       2.752680        74.9042 
  54   0.0000       2.766714        75.2861 
  55   0.0000       2.811016        76.4916 
  56   0.0000       2.811038        76.4922 
  57   0.0000       2.943432        80.0949 
  58   0.0000       3.209474        87.3342 
  59   0.0000       3.209625        87.3383 
  60   0.0000       3.221888        87.6720 
  61   0.0000       3.473148        94.5092 
  62   0.0000       3.717565       101.1601 
  63   0.0000       3.717587       101.1607 
  64   0.0000       4.628734       125.9543 
  65   0.0000       4.758368       129.4818 
  66   0.0000       4.945404       134.5713 
  67   0.0000       4.945839       134.5831 
  68   0.0000       5.009682       136.3204 
  69   0.0000       5.010117       136.3322 
  70   0.0000       5.057505       137.6217 
  71   0.0000       5.058564       137.6505 
  72   0.0000       5.639376       153.4552 
  73   0.0000       5.640263       153.4794 
  74   0.0000       5.837592       158.8489 
  75   0.0000       5.953031       161.9902 
  76   0.0000       5.953263       161.9965 
  77   0.0000       6.129787       166.8000 
  78   0.0000       6.129851       166.8017 
  79   0.0000       6.141743       167.1253 
  80   0.0000       6.141950       167.1310 
  81   0.0000       6.333564       172.3450 
  82   0.0000       6.333847       172.3528 
  83   0.0000       6.609850       179.8632 
  84   0.0000       6.610720       179.8868 
  85   0.0000       6.694941       182.1786 
  86   0.0000       6.849852       186.3939 
  87   0.0000       6.850394       186.4087 
  88   0.0000       7.191606       195.6936 
  89   0.0000       7.333779       199.5623 
  90   0.0000      23.560644       641.1177 
  91   0.0000      43.443613      1182.1608 
  92   0.0000      43.634637      1187.3588 

                    ********************************
                    * MULLIKEN POPULATION ANALYSIS *
                    ********************************

-----------------------
MULLIKEN ATOMIC CHARGES
-----------------------
   0 C :    0.325186
   1 O :   -0.162586
   2 O :   -0.162600
Sum of atomic charges:   -0.0000000

--------------------------------
MULLIKEN REDUCED ORBITAL CHARGES
--------------------------------
  0 C s       :     2.916100  s :     2.916100
      pz      :     0.826877  p :     2.506050
      px      :     0.852632
      py      :     0.826540
      dz2     :     0.011512  d :     0.221911
      dxz     :     0.090449
      dyz     :     0.001308
      dx2y2   :     0.025714
      dxy     :     0.092928
      f0      :     0.003747  f :     0.030754
      f+1     :     0.004004
      f-1     :     0.000586
      f+2     :     0.006599
      f-2     :     0.000370
      f+3     :     0.005584
      f-3     :     0.009865
  1 O s       :     3.810493  s :     3.810493
      pz      :     1.520259  p :     4.321806
      px      :     1.277910
      py      :     1.523637
      dz2     :     0.002433  d :     0.028718
      dxz     :     0.009758
      dyz     :     0.000138
      dx2y2   :     0.006571
      dxy     :     0.009818
      f0      :     0.000198  f :     0.001568
      f+1     :     0.000190
      f-1     :     0.000031
      f+2     :     0.000348
      f-2     :     0.000020
      f+3     :     0.000252
      f-3     :     0.000530
  2 O s       :     3.810503  s :     3.810503
      pz      :     1.520279  p :     4.321811
      px      :     1.277890
      py      :     1.523642
      dz2     :     0.002433  d :     0.028718
      dxz     :     0.009758
      dyz     :     0.000138
      dx2y2   :     0.006571
      dxy     :     0.009818
      f0      :     0.000198  f :     0.001568
      f+1     :     0.000190
      f-1     :     0.000031
      f+2     :     0.000348
      f-2     :     0.000020
      f+3     :     0.000252
      f-3     :     0.000530


                     *******************************
                     * LOEWDIN POPULATION ANALYSIS *
                     *******************************

----------------------
LOEWDIN ATOMIC CHARGES
----------------------
   0 C :   -0.429374
   1 O :    0.214694
   2 O :    0.214680

-------------------------------
LOEWDIN REDUCED ORBITAL CHARGES
-------------------------------
  0 C s       :     2.772959  s :     2.772959
      pz      :     0.806183  p :     2.684837
      px      :     1.076278
      py      :     0.802376
      dz2     :     0.074032  d :     0.855487
      dxz     :     0.287682
      dyz     :     0.004058
      dx2y2   :     0.201171
      dxy     :     0.288544
      f0      :     0.012196  f :     0.116090
      f+1     :     0.019097
      f-1     :     0.001816
      f+2     :     0.021441
      f-2     :     0.001145
      f+3     :     0.029845
      f-3     :     0.030551
  1 O s       :     3.405795  s :     3.405795
      pz      :     1.418092  p :     4.303924
      px      :     1.468462
      py      :     1.417370
      dz2     :     0.008824  d :     0.068990
      dxz     :     0.017311
      dyz     :     0.000233
      dx2y2   :     0.026070
      dxy     :     0.016552
      f0      :     0.000617  f :     0.006596
      f+1     :     0.001242
      f-1     :     0.000087
      f+2     :     0.001084
      f-2     :     0.000055
      f+3     :     0.002038
      f-3     :     0.001473
  2 O s       :     3.405806  s :     3.405806
      pz      :     1.418106  p :     4.303930
      px      :     1.468445
      py      :     1.417379
      dz2     :     0.008824  d :     0.068988
      dxz     :     0.017309
      dyz     :     0.000232
      dx2y2   :     0.026070
      dxy     :     0.016552
      f0      :     0.000617  f :     0.006596
      f+1     :     0.001242
      f-1     :     0.000087
      f+2     :     0.001083
      f-2     :     0.000055
      f+3     :     0.002038
      f-3     :     0.001473


                      *****************************
                      * MAYER POPULATION ANALYSIS *
                      *****************************

  NA   - Mulliken gross atomic population
  ZA   - Total nuclear charge
  QA   - Mulliken gross atomic charge
  VA   - Mayer's total valence
  BVA  - Mayer's bonded valence
  FA   - Mayer's free valence

  ATOM       NA         ZA         QA         VA         BVA        FA
  0 C      5.6748     6.0000     0.3252     4.3291     4.3291     0.0000
  1 O      8.1626     8.0000    -0.1626     2.4074     2.4074     0.0000
  2 O      8.1626     8.0000    -0.1626     2.4074     2.4074    -0.0000

  Mayer bond orders larger than 0.1
B(  0-C ,  1-O ) :   2.1646 B(  0-C ,  2-O ) :   2.1645 B(  1-O ,  2-O ) :   0.2428 


-------
TIMINGS
-------

Total SCF time: 0 days 0 hours 0 min 3 sec 

Total time                  ....       3.426 sec
Sum of individual times     ....       3.288 sec  ( 96.0%)

Fock matrix formation       ....       2.716 sec  ( 79.3%)
  Split-RI-J                ....       1.675 sec  ( 61.7% of F)
  XC integration            ....       0.942 sec  ( 34.7% of F)
    Basis function eval.    ....       0.349 sec  ( 37.1% of XC)
    Density eval.           ....       0.120 sec  ( 12.7% of XC)
    XC-Functional eval.     ....       0.079 sec  (  8.4% of XC)
    XC-Potential eval.      ....       0.249 sec  ( 26.4% of XC)
Diagonalization             ....       0.020 sec  (  0.6%)
Density matrix formation    ....       0.001 sec  (  0.0%)
Population analysis         ....       0.007 sec  (  0.2%)
Initial guess               ....       0.192 sec  (  5.6%)
Orbital Transformation      ....       0.000 sec  (  0.0%)
Orbital Orthonormalization  ....       0.000 sec  (  0.0%)
DIIS solution               ....       0.021 sec  (  0.6%)
SOSCF solution              ....       0.033 sec  (  1.0%)
Grid generation             ....       0.297 sec  (  8.7%)

-------------------------   --------------------
FINAL SINGLE POINT ENERGY      -188.479323337758
-------------------------   --------------------


                            ***************************************
                            *     ORCA property calculations      *
                            ***************************************

                                    ---------------------
                                    Active property flags
                                    ---------------------
   (+) Dipole Moment


------------------------------------------------------------------------------
                       ORCA ELECTRIC PROPERTIES CALCULATION
------------------------------------------------------------------------------

Dipole Moment Calculation                       ... on
Quadrupole Moment Calculation                   ... off
Polarizability Calculation                      ... off
GBWName                                         ... freq.gbw
Electron density file                           ... freq.scfp.tmp
The origin for moment calculation is the CENTER OF MASS  = (-2.135540,  1.638264 -0.012119)

-------------
DIPOLE MOMENT
-------------
                                X             Y             Z
Electronic contribution:     -0.00002      -0.00003      -0.00005
Nuclear contribution   :      0.00000       0.00000       0.00000
                        -----------------------------------------
Total Dipole Moment    :     -0.00002      -0.00003      -0.00005
                        -----------------------------------------
Magnitude (a.u.)       :      0.00006
Magnitude (Debye)      :      0.00014


-------------------------------------------------------------------------------
                               ORCA SCF HESSIAN
-------------------------------------------------------------------------------

Hessian of the Kohn-Sham DFT energy:
Kohn-Sham wavefunction type                      ... RKS
Hartree-Fock exchange scaling                    ...    0.000
Number of operators                              ...    1
Number of atoms                                  ...    3
Basis set dimensions                             ...   93
Integral neglect threshold                       ... 1.0e-10
Integral primitive cutoff                        ... 1.0e-11

Setting up DFT Hessian calculations              ... 
Electron density on the grid                     ... found on disk
Electron density on the final grid               ... found on disk
Building xc-kernel on the grid                   ... done   (      0.0 sec)
Building xc-kernel on the final grid             ... done   (      0.0 sec)
                                                     done   (      0.1 sec)

Nuclear repulsion Hessian                        ... done   (      0.0 sec)

----------------------------------------------
Forming right-hand sides of CP-SCF equations     ...
----------------------------------------------
One electron integral derivatives                ... done   (      0.1 sec)
Transforming the overlap derivative matrices     ... done   (      0.0 sec)
Making the Q(x) pseudodensities                  ... done   (      0.0 sec)
Adding the E*S(x)*S(y) terms to the Hessian      ... done   (      0.0 sec)
Calculating energy weighted overlap derivatives  ... done   (      0.0 sec)
Two electron integral derivatives (RI)           ... done   (      0.6 sec)
Exchange-correlation integral derivatives        ... done   (      3.4 sec)
tr(F(y)Q(x)) contribution to the Hessian         ... done   (      0.0 sec)
Response fock operator R(S(x)) (RI)              ... done   (      0.6 sec)
XC Response fock operator R(S(x))                ... done   (      1.9 sec)
tr(F(y)S(x)) contribution to the Hessian         ... done   (      0.0 sec)
Transforming and finalizing RHSs                 ... done   (      0.0 sec)

----------------------------------------------
Solving the CP-SCF equations (RI)                ...
----------------------------------------------
     CP-SCF ITERATION   0: 
     CP-SCF ITERATION   1:      0.008551772789
     CP-SCF ITERATION   2:      0.000149328614
     CP-SCF ITERATION   3:      0.000003071704
     CP-SCF ITERATION   4:      0.000000598071

                                                 ... done   (      5.3 sec)
Forming perturbed density Hessian contributions  ... done   (      0.0 sec)
Making the perturbed densities                   ... done   (      0.0 sec)
2nd integral derivative contribs (RI)            ... done   (      1.3 sec)
Exchange-correlation Hessian                     ... done   (      6.3 sec)
Dipol derivatives                                ... done   (      0.2 sec)

Total SCF Hessian time: 0 days 0 hours 0 min 19 sec 

Writing the Hessian file to the disk             ... done

Warning: T+R between 5 and 2 = 2.471e-12

-----------------------
VIBRATIONAL FREQUENCIES
-----------------------

   0:         0.00 cm**-1
   1:         0.00 cm**-1
   2:         0.00 cm**-1
   3:         0.00 cm**-1
   4:         0.00 cm**-1
   5:         0.00 cm**-1
   6:       644.44 cm**-1
   7:      1323.23 cm**-1
   8:      2359.58 cm**-1


------------
NORMAL MODES
------------

These modes are the cartesian displacements weighted by the diagonal matrix
M(i,i)=1/sqrt(m[i]) where m[i] is the mass of the displaced atom
Thus, these vectors are normalized but *not* orthogonal

                  0          1          2          3          4          5    
      0       0.000000   0.000000   0.000000   0.000000   0.000000   0.000000
      1       0.000000   0.000000   0.000000   0.000000   0.000000   0.000000
      2       0.000000   0.000000   0.000000   0.000000   0.000000   0.000000
      3       0.000000   0.000000   0.000000   0.000000   0.000000   0.000000
      4       0.000000   0.000000   0.000000   0.000000   0.000000   0.000000
      5       0.000000   0.000000   0.000000   0.000000   0.000000   0.000000
      6       0.000000   0.000000   0.000000   0.000000   0.000000   0.000000
      7       0.000000   0.000000   0.000000   0.000000   0.000000   0.000000
      8       0.000000   0.000000   0.000000   0.000000   0.000000   0.000000
                   6          7          8    
      0       0.089078   0.000050   0.877117
      1       0.399548   0.000040   0.007648
      2       0.782674   0.000073  -0.103731
      3      -0.033494   0.702169  -0.329265
      4      -0.149979   0.006110  -0.002863
      5      -0.293785  -0.083066   0.038957
      6      -0.033381  -0.702206  -0.329216
      7      -0.149976  -0.006140  -0.002879
      8      -0.293795   0.083011   0.038918


-----------
IR SPECTRUM
-----------

 Mode    freq (cm**-1)   T**2         TX         TY         TZ
-------------------------------------------------------------------
   6:       644.44   22.960149  (  0.488497   2.169448   4.244410)
   7:      1323.23    0.000001  (  0.000862   0.000084   0.000050)
   8:      2359.58  518.434446  ( 22.611594   0.196895  -2.666737)

The first frequency considered to be a vibration is 6
The total number of vibrations considered is 3


--------------------------
THERMOCHEMISTRY AT 298.15K
--------------------------

Temperature         ... 298.15 K
Pressure            ... 1.00 atm
Total Mass          ... 44.01 AMU

Throughout the following assumptions are being made:
  (1) The electronic state is orbitally nondegenerate
  (2) There are no thermally accessible electronically excited states
  (3) Hindered rotations indicated by low frequency modes are not
      treated as such but are treated as vibrations and this may
      cause some error
  (4) All equations used are the standard statistical mechanics
      equations for an ideal gas
  (5) All vibrations are strictly harmonic

freq.     644.44  E(vib)   ...       0.09 
freq.    1323.23  E(vib)   ...       0.01 
freq.    2359.58  E(vib)   ...       0.00 

------------
INNER ENERGY
------------

The inner energy is: U= E(el) + E(ZPE) + E(vib) + E(rot) + E(trans)
    E(el)   - is the total energy from the electronic structure calculation
              = E(kin-el) + E(nuc-el) + E(el-el) + E(nuc-nuc)
    E(ZPE)  - the the zero temperature vibrational energy from the frequency calculation
    E(vib)  - the the finite temperature correction to E(ZPE) due to population
              of excited vibrational states
    E(rot)  - is the rotational thermal energy
    E(trans)- is the translational thermal energy

Summary of contributions to the inner energy U:
Electronic energy                ...   -188.47932334 Eh
Zero point energy                ...      0.00985822 Eh       6.19 kcal/mol
Thermal vibrational correction   ...      0.00014741 Eh       0.09 kcal/mol
Thermal rotational correction    ...      0.00141627 Eh       0.89 kcal/mol
Thermal translational correction ...      0.00141627 Eh       0.89 kcal/mol
-----------------------------------------------------------------------
Total thermal energy                   -188.46648516 Eh


Summary of corrections to the electronic energy:
(perhaps to be used in another calculation)
Total thermal correction                  0.00297995 Eh       1.87 kcal/mol
Non-thermal (ZPE) correction              0.00985822 Eh       6.19 kcal/mol
-----------------------------------------------------------------------
Total correction                          0.01283817 Eh       8.06 kcal/mol


--------
ENTHALPY
--------

The enthalpy is H = U + kB*T
                kB is Boltzmann's constant
Total free energy                 ...   -188.46648516 Eh 
Thermal Enthalpy correction       ...      0.00094421 Eh       0.59 kcal/mol
-----------------------------------------------------------------------
Total Enthalpy                    ...   -188.46554096 Eh


Vibrational entropy computed according to the QRRHO of S. Grimme
Chem.Eur.J. 2012 18 9955


-------
ENTROPY
-------

The entropy contributions are T*S = T*(S(el)+S(vib)+S(rot)+S(trans)
     S(el)   - electronic entropy
     S(vib)  - vibrational entropy
     S(rot)  - rotational entropy
     S(trans)- translational entropy
The entropies will be listed as mutliplied by the temperature to get
units of energy

Electronic entropy                ...      0.00000000 Eh      0.00 kcal/mol
Vibrational entropy               ...      0.00019227 Eh      0.12 kcal/mol
Rotational entropy                ...     -0.00004343 Eh     -0.03 kcal/mol
Translational entropy             ...      0.01770880 Eh     11.11 kcal/mol
-----------------------------------------------------------------------
Final entropy term                ...      0.01785765 Eh     11.21 kcal/mol


CAUTION: The rotational entropy is not quite correctly treated here
         because it includes a symmetry number that is not yet correctly
         implemented in ORCA!
For a nonlinear molecule the correct rotational entropy is:
    S(rot) = R*(ln(qrot/sn)+1.5)
    R    = 8.31441 J/mol/K = 1.987191683e-3 kcal/mol/K
    qrot =    0.6393009
    sn is the rotational symmetry number. We have assumed 3 here
       if it is different for your molecule then you should correct
       the printed rotational entropy by manually evaluating the equation
       as given above

For convenience we print out the resulting values for sn=1 - 12:
 sn= 1  qrot/sn=       0.6393 T*S(rot)=     0.62 kcal/mol T*S(tot)=    11.86 kcal/mol
 sn= 2  qrot/sn=       0.3197 T*S(rot)=     0.21 kcal/mol T*S(tot)=    11.45 kcal/mol
 sn= 3  qrot/sn=       0.2131 T*S(rot)=    -0.03 kcal/mol T*S(tot)=    11.21 kcal/mol
 sn= 4  qrot/sn=       0.1598 T*S(rot)=    -0.20 kcal/mol T*S(tot)=    11.04 kcal/mol
 sn= 5  qrot/sn=       0.1279 T*S(rot)=    -0.33 kcal/mol T*S(tot)=    10.90 kcal/mol
 sn= 6  qrot/sn=       0.1066 T*S(rot)=    -0.44 kcal/mol T*S(tot)=    10.80 kcal/mol
 sn= 7  qrot/sn=       0.0913 T*S(rot)=    -0.53 kcal/mol T*S(tot)=    10.70 kcal/mol
 sn= 8  qrot/sn=       0.0799 T*S(rot)=    -0.61 kcal/mol T*S(tot)=    10.62 kcal/mol
 sn= 9  qrot/sn=       0.0710 T*S(rot)=    -0.68 kcal/mol T*S(tot)=    10.55 kcal/mol
 sn=10  qrot/sn=       0.0639 T*S(rot)=    -0.74 kcal/mol T*S(tot)=    10.49 kcal/mol
 sn=11  qrot/sn=       0.0581 T*S(rot)=    -0.80 kcal/mol T*S(tot)=    10.44 kcal/mol
 sn=12  qrot/sn=       0.0533 T*S(rot)=    -0.85 kcal/mol T*S(tot)=    10.38 kcal/mol


-------------------
GIBBS FREE ENTHALPY
-------------------

The Gibbs free enthalpy is G = H - T*S

Total enthalpy                    ...   -188.46554096 Eh 
Total entropy correction          ...     -0.01785765 Eh    -11.21 kcal/mol
-----------------------------------------------------------------------
Final Gibbs free enthalpy         ...   -188.48339860 Eh

For completeness - the Gibbs free enthalpy minus the electronic energy
G-E(el)                           ...     -0.00407527 Eh     -2.56 kcal/mol


Timings for individual modules:

Sum of individual times         ...       23.540 sec (=   0.392 min)
GTO integral calculation        ...        0.218 sec (=   0.004 min)   0.9 %
SCF iterations                  ...        3.453 sec (=   0.058 min)  14.7 %
Analytical frequency calculation...       19.869 sec (=   0.331 min)  84.4 %
                             ****ORCA TERMINATED NORMALLY****
TOTAL RUN TIME: 0 days 0 hours 0 minutes 23 seconds 733 msec
