
                                 *****************
                                 * O   R   C   A *
                                 *****************

           --- An Ab Initio, DFT and Semiempirical electronic structure package ---

                  #######################################################
                  #                        -***-                        #
                  #  Department of molecular theory and spectroscopy    #
                  #              Directorship: Frank Neese              #
                  # Max Planck Institute for Chemical Energy Conversion #
                  #                  D-45470 Muelheim/Ruhr              #
                  #                       Germany                       #
                  #                                                     #
                  #                  All rights reserved                #
                  #                        -***-                        #
                  #######################################################


                         Program Version 4.0.1.2 - RELEASE -


 With contributions from (in alphabetic order):
   Daniel Aravena         : Magnetic Properties
   Michael Atanasov       : Ab Initio Ligand Field Theory
   Ute Becker             : Parallelization
   Martin Brehm           : Molecular dynamics
   Dmytro Bykov           : SCF Hessian
   Vijay G. Chilkuri      : MRCI spin determinant printing
   Dipayan Datta          : RHF DLPNO-CCSD density
   Achintya Kumar Dutta   : EOM-CC, STEOM-CC
   Dmitry Ganyushin       : Spin-Orbit,Spin-Spin,Magnetic field MRCI
   Yang Guo               : DLPNO-NEVPT2, CIM, IAO-localization
   Andreas Hansen         : Spin unrestricted coupled pair/coupled cluster methods
   Lee Huntington         : MR-EOM, pCC
   Robert Izsak           : Overlap fitted RIJCOSX, COSX-SCS-MP3, EOM
   Christian Kollmar      : KDIIS, OOCD, Brueckner-CCSD(T), CCSD density
   Simone Kossmann        : Meta GGA functionals, TD-DFT gradient, OOMP2, MP2 Hessian
   Martin Krupicka        : AUTO-CI
   Dagmar Lenk            : GEPOL surface
   Dimitrios Liakos       : Extrapolation schemes; parallel MDCI
   Dimitrios Manganas     : ROCIS; embedding schemes
   Dimitrios Pantazis     : SARC Basis sets
   Taras Petrenko         : DFT Hessian,TD-DFT gradient, ASA, ECA, R-Raman, ABS, FL, XAS/XES, NRVS
   Peter Pinski           : DLPNO-MP2
   Christoph Reimann      : Effective Core Potentials
   Marius Retegan         : Local ZFS, SOC
   Christoph Riplinger    : Optimizer, TS searches, QM/MM, DLPNO-CCSD(T), (RO)-DLPNO pert. Triples
   Tobias Risthaus        : Range-separated hybrids, TD-DFT gradient, RPA, STAB
   Michael Roemelt        : Restricted open shell CIS
   Masaaki Saitow         : Open-shell DLPNO
   Barbara Sandhoefer     : DKH picture change effects
   Kantharuban Sivalingam : CASSCF convergence, NEVPT2, FIC-MRCI
   Georgi Stoychev        : AutoAux
   Boris Wezisla          : Elementary symmetry handling
   Frank Wennmohs         : Technical directorship


 We gratefully acknowledge several colleagues who have allowed us to
 interface, adapt or use parts of their codes:
   Stefan Grimme, W. Hujo, H. Kruse,             : VdW corrections, initial TS optimization,
                  C. Bannwarth                     DFT functionals, gCP, sTDA/sTD-DF
   Ed Valeev                                     : LibInt (2-el integral package), F12 methods
   Garnet Chan, S. Sharma, J. Yang, R. Olivares  : DMRG
   Ulf Ekstrom                                   : XCFun DFT Library
   Mihaly Kallay                                 : mrcc  (arbitrary order and MRCC methods)
   Andreas Klamt, Michael Diedenhofen            : otool_cosmo (COSMO solvation model)
   Jiri Pittner, Ondrej Demel                    : Mk-CCSD
   Frank Weinhold                                : gennbo (NPA and NBO analysis)
   Christopher J. Cramer and Donald G. Truhlar   : smd solvation model


 Your calculation uses the libint2 library for the computation of 2-el integrals
 For citations please refer to: http://libint.valeyev.net

 This ORCA versions uses:
   CBLAS   interface :  Fast vector & matrix operations
   LAPACKE interface :  Fast linear algebra routines
   SCALAPACK package :  Parallel linear algebra routines




*****************************************
The coordinations will be read from file: PF5.xyz
*****************************************


Your calculation utilizes the basis: def2-TZVP
   F. Weigend and R. Ahlrichs, Phys. Chem. Chem. Phys. 7, 3297 (2005).

Your calculation utilizes the auxiliary basis: def2/J
   F. Weigend, Phys. Chem. Chem. Phys. 8, 1057 (2006).

================================================================================
                                        WARNINGS
                       Please study these warnings very carefully!
================================================================================

Warning: TCutStore was < 0. Adjusted to Thresh (uncritical)

WARNING: Geometry Optimization
  ===> : Switching off AutoStart
         For restart on a previous wavefunction, please use MOREAD

INFO   : the flag for use of LIBINT has been found!

================================================================================
                                       INPUT FILE
================================================================================
NAME = opt.inp
|  1> # avogadro generated ORCA input file 
|  2> # Basic Mode
|  3> # 
|  4> ! PBE OPT def2-TZVP
|  5> 
|  6> * xyzfile 0 1 PF5.xyz
|  7> 
|  8> 
|  9>                          ****END OF INPUT****
================================================================================

                       *****************************
                       * Geometry Optimization Run *
                       *****************************

Geometry optimization settings:
Update method            Update   .... BFGS
Choice of coordinates    CoordSys .... Redundant Internals
Initial Hessian          InHess   .... Almoef's Model

Convergence Tolerances:
Energy Change            TolE     ....  5.0000e-06 Eh
Max. Gradient            TolMAXG  ....  3.0000e-04 Eh/bohr
RMS Gradient             TolRMSG  ....  1.0000e-04 Eh/bohr
Max. Displacement        TolMAXD  ....  4.0000e-03 bohr
RMS Displacement         TolRMSD  ....  2.0000e-03 bohr

------------------------------------------------------------------------------
                        ORCA OPTIMIZATION COORDINATE SETUP
------------------------------------------------------------------------------

The optimization will be done in new redundant internal coordinates
Making redundant internal coordinates   ...  (new redundants) done
Evaluating the initial hessian          ...  (Almloef) done
Evaluating the coordinates              ...  done
Calculating the B-matrix                .... done
Calculating the G-matrix                .... done
Diagonalizing the G-matrix              .... done
The first mode is                       ....   10
The number of degrees of freedom        ....   12

    -----------------------------------------------------------------
                    Redundant Internal Coordinates


    -----------------------------------------------------------------
         Definition                    Initial Value    Approx d2E/dq
    -----------------------------------------------------------------
      1. B(F   1,P   0)                  2.0593         0.149484   
      2. B(F   2,F   1)                  3.1519         0.000669   
      3. B(F   2,P   0)                  2.4434         0.036455   
      4. B(F   3,P   0)                  1.8798         0.289095   
      5. B(F   4,P   0)                  1.8390         0.335846   
      6. B(F   5,P   0)                  1.8189         0.361622   
      7. A(F   4,P   0,F   5)           89.3328         0.394906   
      8. A(F   1,P   0,F   5)           70.7017         0.343695   
      9. A(F   3,P   0,F   5)          106.6465         0.384701   
     10. A(F   1,P   0,F   4)          106.2201         0.339468   
     11. A(F   1,P   0,F   2)           88.4242         0.240522   
     12. A(F   2,P   0,F   3)           94.9397         0.264918   
     13. A(F   2,P   0,F   4)          133.2552         0.270989   
     14. A(F   2,P   0,F   5)          136.9819         0.274060   
     15. A(F   3,P   0,F   4)           71.4205         0.379794   
     16. A(P   0,F   1,F   2)           50.7991         0.144553   
     17. A(P   0,F   2,F   1)           40.7767         0.129365   
     18. D(F   2,F   1,P   0,F   4)   -134.9041         0.001864   
     19. D(F   2,F   1,P   0,F   5)    141.6830         0.001864   
     20. D(F   1,F   2,P   0,F   3)    179.9999         0.001523   
     21. D(F   1,F   2,P   0,F   5)    -59.0637         0.001523   
     22. D(F   1,F   2,P   0,F   4)    110.9647         0.001523   
    -----------------------------------------------------------------

Number of atoms                         .... 6
Number of degrees of freedom            .... 22

         *************************************************************
         *                GEOMETRY OPTIMIZATION CYCLE   1            *
         *************************************************************
---------------------------------
CARTESIAN COORDINATES (ANGSTROEM)
---------------------------------
  P     -0.725740    0.274410    0.017870
  F     -0.756530    2.333480    0.007660
  F     -3.168840    0.305210    0.044690
  F     -0.587400   -1.600260    0.025950
  F      0.542040   -0.214230    1.257150
  F      0.600160    0.890050   -1.064350

----------------------------
CARTESIAN COORDINATES (A.U.)
----------------------------
  NO LB      ZA    FRAG     MASS         X           Y           Z
   0 P    15.0000    0    30.974   -1.371450    0.518560    0.033769
   1 F     9.0000    0    18.998   -1.429635    4.409638    0.014475
   2 F     9.0000    0    18.998   -5.988240    0.576763    0.084452
   3 F     9.0000    0    18.998   -1.110025   -3.024053    0.049038
   4 F     9.0000    0    18.998    1.024307   -0.404836    2.375669
   5 F     9.0000    0    18.998    1.134138    1.681951   -2.011330

--------------------------------
INTERNAL COORDINATES (ANGSTROEM)
--------------------------------
 P      0   0   0     0.000000000000     0.00000000     0.00000000
 F      1   0   0     2.059325504407     0.00000000     0.00000000
 F      1   2   0     2.443441335985    88.42424778     0.00000000
 F      1   2   3     1.879784788453   176.63607069   180.00125717
 F      1   2   3     1.838980722139   106.22010319   225.09585174
 F      1   2   3     1.818852261180    70.70173055   141.68297319

---------------------------
INTERNAL COORDINATES (A.U.)
---------------------------
 P      0   0   0     0.000000000000     0.00000000     0.00000000
 F      1   0   0     3.891561223928     0.00000000     0.00000000
 F      1   2   0     4.617434949314    88.42424778     0.00000000
 F      1   2   3     3.552278440888   176.63607069   180.00125717
 F      1   2   3     3.475169930404   106.22010319   225.09585174
 F      1   2   3     3.437132651694    70.70173055   141.68297319

---------------------
BASIS SET INFORMATION
---------------------
There are 2 groups of distinct atoms

 Group   1 Type P   : 14s9p3d1f contracted to 5s5p2d1f pattern {73211/51111/21/1}
 Group   2 Type F   : 11s6p2d1f contracted to 5s3p2d1f pattern {62111/411/11/1}

Atom   0P    basis set group =>   1
Atom   1F    basis set group =>   2
Atom   2F    basis set group =>   2
Atom   3F    basis set group =>   2
Atom   4F    basis set group =>   2
Atom   5F    basis set group =>   2
-------------------------------
AUXILIARY BASIS SET INFORMATION
-------------------------------
There are 2 groups of distinct atoms

 Group   1 Type P   : 14s5p5d2f1g contracted to 8s4p3d1f1g pattern {71111111/2111/311/2/1}
 Group   2 Type F   : 12s5p4d2f1g contracted to 6s4p3d1f1g pattern {711111/2111/211/2/1}

Atom   0P    basis set group =>   1
Atom   1F    basis set group =>   2
Atom   2F    basis set group =>   2
Atom   3F    basis set group =>   2
Atom   4F    basis set group =>   2
Atom   5F    basis set group =>   2
------------------------------------------------------------------------------
                           ORCA GTO INTEGRAL CALCULATION
                           -- RI-GTO INTEGRALS CHOSEN --
------------------------------------------------------------------------------

                         BASIS SET STATISTICS AND STARTUP INFO

Gaussian basis set:
 # of primitive gaussian shells          ...  127
 # of primitive gaussian functions       ...  293
 # of contracted shells                  ...   68
 # of contracted basis functions         ...  192
 Highest angular momentum                ...    3
 Maximum contraction depth               ...    7
Auxiliary gaussian basis set:
 # of primitive gaussian shells          ...  147
 # of primitive gaussian functions       ...  427
 # of contracted shells                  ...   92
 # of contracted aux-basis functions     ...  296
 Highest angular momentum                ...    4
 Maximum contraction depth               ...    7
Ratio of auxiliary to basis functions    ...  1.54
Integral package used                  ... LIBINT
 One Electron integrals                  ... done
 Ordering auxiliary basis shells         ... done
 Integral threshhold             Thresh  ...  2.500e-11
 Primitive cut-off               TCut    ...  2.500e-12
 Pre-screening matrix                    ... done
 Shell pair data                         ... 
 Ordering of the shell pairs             ... done (   0.000 sec) 1979 of 2346 pairs
 Determination of significant pairs      ... done (   0.000 sec)
 Creation of shell pair data             ... done (   0.001 sec)
 Storage of shell pair data              ... done (   0.005 sec)
 Shell pair data done in (   0.006 sec)
 Computing two index integrals           ... done
 Cholesky decomposition of the V-matrix  ... done


Timings:
 Total evaluation time                   ...   0.239 sec (  0.004 min)
 One electron matrix time                ...   0.018 sec (  0.000 min) =  7.5%
 Schwartz matrix evaluation time         ...   0.179 sec (  0.003 min) = 74.6%
 Two index repulsion integral time       ...   0.007 sec (  0.000 min) =  3.1%
 Cholesky decomposition of V             ...   0.006 sec (  0.000 min) =  2.6%
 Three index repulsion integral time     ...   0.000 sec (  0.000 min) =  0.0%

-------------------------------------------------------------------------------
                                 ORCA SCF
-------------------------------------------------------------------------------

------------
SCF SETTINGS
------------
Hamiltonian:
 Density Functional     Method          .... DFT(GTOs)
 Exchange Functional    Exchange        .... PBE
   PBE kappa parameter   XKappa         ....  0.804000
   PBE mue parameter    XMuePBE         ....  0.219520
 Correlation Functional Correlation     .... PBE
   PBE beta parameter  CBetaPBE         ....  0.066725
 LDA part of GGA corr.  LDAOpt          .... PW91-LDA
 Gradients option       PostSCFGGA      .... off
   NL short-range parameter             ....  6.400000
 RI-approximation to the Coulomb term is turned on
   Number of auxiliary basis functions  .... 296


General Settings:
 Integral files         IntName         .... opt
 Hartree-Fock type      HFTyp           .... RHF
 Total Charge           Charge          ....    0
 Multiplicity           Mult            ....    1
 Number of Electrons    NEL             ....   60
 Basis Dimension        Dim             ....  192
 Nuclear Repulsion      ENuc            ....    323.2027133410 Eh

Convergence Acceleration:
 DIIS                   CNVDIIS         .... on
   Start iteration      DIISMaxIt       ....    12
   Startup error        DIISStart       ....  0.200000
   # of expansion vecs  DIISMaxEq       ....     5
   Bias factor          DIISBfac        ....   1.050
   Max. coefficient     DIISMaxC        ....  10.000
 Newton-Raphson         CNVNR           .... off
 SOSCF                  CNVSOSCF        .... on
   Start iteration      SOSCFMaxIt      ....   150
   Startup grad/error   SOSCFStart      ....  0.003300
 Level Shifting         CNVShift        .... on
   Level shift para.    LevelShift      ....    0.2500
   Turn off err/grad.   ShiftErr        ....    0.0010
 Zerner damping         CNVZerner       .... off
 Static damping         CNVDamp         .... on
   Fraction old density DampFac         ....    0.7000
   Max. Damping (<1)    DampMax         ....    0.9800
   Min. Damping (>=0)   DampMin         ....    0.0000
   Turn off err/grad.   DampErr         ....    0.1000
 Fernandez-Rico         CNVRico         .... off

SCF Procedure:
 Maximum # iterations   MaxIter         ....   125
 SCF integral mode      SCFMode         .... Direct
   Integral package                     .... LIBINT
 Reset frequeny         DirectResetFreq ....    20
 Integral Threshold     Thresh          ....  2.500e-11 Eh
 Primitive CutOff       TCut            ....  2.500e-12 Eh

Convergence Tolerance:
 Convergence Check Mode ConvCheckMode   .... Total+1el-Energy
 Convergence forced     ConvForced      .... 0
 Energy Change          TolE            ....  1.000e-08 Eh
 1-El. energy change                    ....  1.000e-05 Eh
 Orbital Gradient       TolG            ....  1.000e-05
 Orbital Rotation angle TolX            ....  1.000e-05
 DIIS Error             TolErr          ....  5.000e-07


Diagonalization of the overlap matrix:
Smallest eigenvalue                        ... 4.625e-03
Time for diagonalization                   ...    0.008 sec
Threshold for overlap eigenvalues          ... 1.000e-08
Number of eigenvalues below threshold      ... 0
Time for construction of square roots      ...    0.005 sec
Total time needed                          ...    0.013 sec

-------------------
DFT GRID GENERATION
-------------------

General Integration Accuracy     IntAcc      ...  4.340
Radial Grid Type                 RadialGrid  ... Gauss-Chebyshev
Angular Grid (max. acc.)         AngularGrid ... Lebedev-110
Angular grid pruning method      GridPruning ... 3 (G Style)
Weight generation scheme         WeightScheme... Becke
Basis function cutoff            BFCut       ...    1.0000e-11
Integration weight cutoff        WCut        ...    1.0000e-14
Grids for H and He will be reduced by one unit

# of grid points (after initial pruning)     ...  10506 (   0.0 sec)
# of grid points (after weights+screening)   ...  10271 (   0.0 sec)
nearest neighbour list constructed           ...    0.0 sec
Grid point re-assignment to atoms done       ...    0.0 sec
Grid point division into batches done        ...    0.0 sec
Reduced shell lists constructed in    0.2 sec

Total number of grid points                  ...    10271
Total number of batches                      ...      163
Average number of points per batch           ...       63
Average number of grid points per atom       ...     1712
Average number of shells per batch           ...    39.23 (57.68%)
Average number of basis functions per batch  ...   113.38 (59.05%)
Average number of large shells per batch     ...    30.01 (76.51%)
Average number of large basis fcns per batch ...    86.34 (76.15%)
Maximum spatial batch extension              ...  23.61, 22.71, 26.79 au
Average spatial batch extension              ...   4.68,  4.51,  4.28 au

Time for grid setup =    0.176 sec

------------------------------
INITIAL GUESS: MODEL POTENTIAL
------------------------------
Loading Hartree-Fock densities                     ... done
Calculating cut-offs                               ... done
Setting up the integral package                    ... done
Initializing the effective Hamiltonian             ... done
Starting the Coulomb interaction                   ... done (   0.1 sec)
Reading the grid                                   ... done
Mapping shells                                     ... done
Starting the XC term evaluation                    ... done (   0.2 sec)
  promolecular density results
     # of electrons  =     60.001182251
     EX              =    -72.247930151
     EC              =     -2.110294056
     EX+EC           =    -74.358224208
Transforming the Hamiltonian                       ... done (   0.3 sec)
Diagonalizing the Hamiltonian                      ... done (   0.0 sec)
Back transforming the eigenvectors                 ... done (   0.0 sec)
Now organizing SCF variables                       ... done
                      ------------------
                      INITIAL GUESS DONE (   1.0 sec)
                      ------------------
--------------
SCF ITERATIONS
--------------
ITER       Energy         Delta-E        Max-DP      RMS-DP      [F,P]     Damp
               ***  Starting incremental Fock matrix formation  ***
  0   -839.5910861737   0.000000000000 0.36630757  0.00336229  0.3164299 0.7000
  1   -839.7693878892  -0.178301715489 0.12694310  0.00125433  0.1597169 0.7000
                               ***Turning on DIIS***
  2   -839.8229383363  -0.053550447175 0.08694539  0.00188705  0.0766335 0.0000
  3   -839.9298342409  -0.106895904562 0.01869672  0.00033740  0.2782080 0.7000
  4   -839.9544386233  -0.024604382344 0.02092398  0.00031768  0.2204245 0.7000
  5   -839.9755984484  -0.021159825100 0.01830443  0.00027754  0.1642062 0.7000
  6   -839.9905865313  -0.014988082990 0.01982768  0.00024247  0.1210617 0.7000
  7   -840.0005788538  -0.009992322474 0.09425097  0.00091714  0.0887249 0.0000
  8   -840.0142374063  -0.013658552451 0.02620635  0.00028807  0.0262347 0.0000
  9   -840.0146622058  -0.000424799573 0.00751857  0.00008740  0.0325741 0.0000
 10   -840.0154679082  -0.000805702380 0.00296552  0.00005154  0.0204855 0.0000
 11   -840.0159058542  -0.000437945943 0.00317098  0.00005107  0.0121805 0.0000
 12   -840.0161506154  -0.000244761257 0.00294077  0.00005296  0.0057698 0.0000
 13   -840.0162235826  -0.000072967211 0.00112597  0.00002532  0.0033647 0.0000
                      *** Initiating the SOSCF procedure ***
                           *** Shutting down DIIS ***
                      *** Re-Reading the Fockian *** 
                      *** Removing any level shift *** 
ITER      Energy       Delta-E        Grad      Rot      Max-DP    RMS-DP
 14   -840.01624392  -0.0000203376  0.000143  0.000143  0.000672  0.000010
               *** Restarting incremental Fock matrix formation ***
 15   -840.01624495  -0.0000010304  0.000554  0.008751  0.005548  0.000084
 16   -840.01604202   0.0002029284  0.006387  0.008325  0.005288  0.000079
 17   -840.01624639  -0.0002043673  0.000299  0.000990  0.002612  0.000026
 18   -840.01623509   0.0000112976  0.000976  0.000759  0.002073  0.000020
 19   -840.01624768  -0.0000125923  0.000052  0.000485  0.000280  0.000006
 20   -840.01624704   0.0000006462  0.000215  0.000426  0.000197  0.000005
 21   -840.01624772  -0.0000006834  0.000030  0.000167  0.000101  0.000003
 22   -840.01624750   0.0000002257  0.000128  0.000140  0.000079  0.000003
 23   -840.01624774  -0.0000002434  0.000004  0.000043  0.000037  0.000001
 24   -840.01624774  -0.0000000005  0.000020  0.000031  0.000021  0.000000
 25   -840.01624774  -0.0000000032  0.000003  0.000009  0.000038  0.000000
 26   -840.01624774   0.0000000067  0.000004  0.000008  0.000022  0.000000
                 **** Energy Check signals convergence ****
              ***Rediagonalizing the Fockian in SOSCF/NRSCF***

               *****************************************************
               *                     SUCCESS                       *
               *           SCF CONVERGED AFTER  27 CYCLES          *
               *****************************************************

Setting up the final grid:

General Integration Accuracy     IntAcc      ...  4.670
Radial Grid Type                 RadialGrid  ... Gauss-Chebyshev
Angular Grid (max. acc.)         AngularGrid ... Lebedev-302
Angular grid pruning method      GridPruning ... 3 (G Style)
Weight generation scheme         WeightScheme... Becke
Basis function cutoff            BFCut       ...    1.0000e-11
Integration weight cutoff        WCut        ...    1.0000e-14
Grids for H and He will be reduced by one unit

# of grid points (after initial pruning)     ...  38206 (   0.0 sec)
# of grid points (after weights+screening)   ...  37295 (   0.0 sec)
nearest neighbour list constructed           ...    0.0 sec
Grid point re-assignment to atoms done       ...    0.0 sec
Grid point division into batches done        ...    0.2 sec
Reduced shell lists constructed in    0.7 sec

Total number of grid points                  ...    37295
Total number of batches                      ...      586
Average number of points per batch           ...       63
Average number of grid points per atom       ...     6216
Average number of shells per batch           ...    34.37 (50.55%)
Average number of basis functions per batch  ...    98.54 (51.32%)
Average number of large shells per batch     ...    25.94 (75.46%)
Average number of large basis fcns per batch ...    74.23 (75.33%)
Maximum spatial batch extension              ...  16.88, 18.19, 18.59 au
Average spatial batch extension              ...   3.02,  3.00,  3.12 au

Final grid set up in    0.8 sec
Final integration                            ... done (   0.7 sec)
Change in XC energy                          ...     0.000454498
Integrated number of electrons               ...    60.000003291
Previous integrated no of electrons          ...    60.000819654

----------------
TOTAL SCF ENERGY
----------------

Total Energy       :         -840.01579325 Eh          -22857.99181 eV

Components:
Nuclear Repulsion  :          323.20271334 Eh            8794.79295 eV
Electronic Energy  :        -1163.21850659 Eh          -31652.78476 eV
One Electron Energy:        -1810.95128268 Eh          -49278.48967 eV
Two Electron Energy:          647.73277609 Eh           17625.70491 eV

Virial components:
Potential Energy   :        -1676.65487188 Eh          -45624.09855 eV
Kinetic Energy     :          836.63907863 Eh           22766.10674 eV
Virial Ratio       :            2.00403605


DFT components:
N(Alpha)           :       30.000001645644 electrons
N(Beta)            :       30.000001645644 electrons
N(Total)           :       60.000003291287 electrons
E(X)               :      -72.390979546489 Eh       
E(C)               :       -2.102864328992 Eh       
E(XC)              :      -74.493843875481 Eh       

---------------
SCF CONVERGENCE
---------------

  Last Energy change         ...   -7.3949e-09  Tolerance :   1.0000e-08
  Last MAX-Density change    ...    1.9401e-06  Tolerance :   1.0000e-07
  Last RMS-Density change    ...    4.8261e-08  Tolerance :   5.0000e-09
  Last Orbital Gradient      ...    2.7721e-07  Tolerance :   1.0000e-05
  Last Orbital Rotation      ...    6.3147e-06  Tolerance :   1.0000e-05

             **** THE GBW FILE WAS UPDATED (opt.gbw) ****
             **** DENSITY FILE WAS UPDATED (opt.scfp.tmp) ****
             **** ENERGY FILE WAS UPDATED (opt.en.tmp) ****
----------------
ORBITAL ENERGIES
----------------

  NO   OCC          E(Eh)            E(eV) 
   0   2.0000     -76.630884     -2085.2324 
   1   2.0000     -24.329952      -662.0517 
   2   2.0000     -24.329063      -662.0275 
   3   2.0000     -24.320957      -661.8069 
   4   2.0000     -24.301659      -661.2818 
   5   2.0000     -24.297131      -661.1586 
   6   2.0000      -6.597421      -179.5249 
   7   2.0000      -4.817336      -131.0864 
   8   2.0000      -4.814799      -131.0173 
   9   2.0000      -4.814100      -130.9983 
  10   2.0000      -1.144602       -31.1462 
  11   2.0000      -1.123783       -30.5797 
  12   2.0000      -1.098659       -29.8960 
  13   2.0000      -1.073853       -29.2210 
  14   2.0000      -1.056031       -28.7361 
  15   2.0000      -0.671878       -18.2827 
  16   2.0000      -0.519152       -14.1268 
  17   2.0000      -0.490906       -13.3582 
  18   2.0000      -0.486939       -13.2503 
  19   2.0000      -0.438118       -11.9218 
  20   2.0000      -0.429892       -11.6980 
  21   2.0000      -0.425924       -11.5900 
  22   2.0000      -0.414110       -11.2685 
  23   2.0000      -0.404014       -10.9938 
  24   2.0000      -0.391153       -10.6438 
  25   2.0000      -0.376124       -10.2349 
  26   2.0000      -0.364007        -9.9051 
  27   2.0000      -0.362268        -9.8578 
  28   2.0000      -0.358989        -9.7686 
  29   2.0000      -0.352084        -9.5807 
  30   0.0000      -0.340669        -9.2701 
  31   0.0000      -0.214061        -5.8249 
  32   0.0000      -0.122198        -3.3252 
  33   0.0000      -0.106807        -2.9064 
  34   0.0000       0.151519         4.1230 
  35   0.0000       0.155351         4.2273 
  36   0.0000       0.160958         4.3799 
  37   0.0000       0.178858         4.8670 
  38   0.0000       0.187430         5.1002 
  39   0.0000       0.196308         5.3418 
  40   0.0000       0.237427         6.4607 
  41   0.0000       0.296686         8.0732 
  42   0.0000       0.339267         9.2319 
  43   0.0000       0.452577        12.3152 
  44   0.0000       0.457767        12.4565 
  45   0.0000       0.464583        12.6420 
  46   0.0000       0.465237        12.6597 
  47   0.0000       0.481287        13.0965 
  48   0.0000       0.510001        13.8778 
  49   0.0000       0.513928        13.9847 
  50   0.0000       0.528808        14.3896 
  51   0.0000       0.542672        14.7669 
  52   0.0000       0.546854        14.8807 
  53   0.0000       0.575218        15.6525 
  54   0.0000       0.586293        15.9539 
  55   0.0000       0.646778        17.5997 
  56   0.0000       0.660113        17.9626 
  57   0.0000       0.688063        18.7231 
  58   0.0000       0.780754        21.2454 
  59   0.0000       0.804596        21.8942 
  60   0.0000       0.838164        22.8076 
  61   0.0000       0.937104        25.4999 
  62   0.0000       0.956221        26.0201 
  63   0.0000       1.044927        28.4339 
  64   0.0000       1.055410        28.7192 
  65   0.0000       1.084242        29.5037 
  66   0.0000       1.087473        29.5916 
  67   0.0000       1.107242        30.1296 
  68   0.0000       1.122151        30.5353 
  69   0.0000       1.156828        31.4789 
  70   0.0000       1.192407        32.4471 
  71   0.0000       1.206665        32.8350 
  72   0.0000       1.228088        33.4180 
  73   0.0000       1.270892        34.5827 
  74   0.0000       1.365952        37.1694 
  75   0.0000       1.496578        40.7240 
  76   0.0000       1.614323        43.9279 
  77   0.0000       1.670346        45.4524 
  78   0.0000       1.810129        49.2561 
  79   0.0000       1.818161        49.4747 
  80   0.0000       1.829959        49.7957 
  81   0.0000       1.853627        50.4397 
  82   0.0000       1.871862        50.9360 
  83   0.0000       1.872876        50.9635 
  84   0.0000       1.878538        51.1176 
  85   0.0000       1.882023        51.2124 
  86   0.0000       1.886350        51.3302 
  87   0.0000       1.925839        52.4047 
  88   0.0000       1.934777        52.6480 
  89   0.0000       1.957520        53.2668 
  90   0.0000       2.076099        56.4935 
  91   0.0000       2.096557        57.0502 
  92   0.0000       2.118693        57.6526 
  93   0.0000       2.166978        58.9665 
  94   0.0000       2.180964        59.3471 
  95   0.0000       2.201328        59.9012 
  96   0.0000       2.244192        61.0676 
  97   0.0000       2.292205        62.3741 
  98   0.0000       2.301557        62.6286 
  99   0.0000       2.376836        64.6770 
 100   0.0000       2.422443        65.9180 
 101   0.0000       2.477767        67.4235 
 102   0.0000       2.573259        70.0219 
 103   0.0000       2.978517        81.0496 
 104   0.0000       3.001784        81.6827 
 105   0.0000       3.017376        82.1070 
 106   0.0000       3.023138        82.2638 
 107   0.0000       3.046323        82.8947 
 108   0.0000       3.076095        83.7048 
 109   0.0000       3.081553        83.8533 
 110   0.0000       3.095149        84.2233 
 111   0.0000       3.110057        84.6290 
 112   0.0000       3.117477        84.8309 
 113   0.0000       3.134676        85.2989 
 114   0.0000       3.329383        90.5971 
 115   0.0000       3.394559        92.3706 
 116   0.0000       3.483220        94.7832 
 117   0.0000       3.506387        95.4137 
 118   0.0000       3.616319        98.4050 
 119   0.0000       3.659539        99.5811 
 120   0.0000       3.849948       104.7624 
 121   0.0000       3.870091       105.3105 
 122   0.0000       4.008362       109.0731 
 123   0.0000       6.564012       178.6158 
 124   0.0000       6.588974       179.2951 
 125   0.0000       6.642649       180.7557 
 126   0.0000       6.651425       180.9945 
 127   0.0000       6.652333       181.0192 
 128   0.0000       6.655954       181.1177 
 129   0.0000       6.660989       181.2547 
 130   0.0000       6.664222       181.3427 
 131   0.0000       6.665430       181.3756 
 132   0.0000       6.670561       181.5152 
 133   0.0000       6.675697       181.6550 
 134   0.0000       6.680697       181.7910 
 135   0.0000       6.682025       181.8272 
 136   0.0000       6.682360       181.8363 
 137   0.0000       6.684294       181.8889 
 138   0.0000       6.686439       181.9472 
 139   0.0000       6.689033       182.0178 
 140   0.0000       6.690726       182.0639 
 141   0.0000       6.692991       182.1255 
 142   0.0000       6.697693       182.2535 
 143   0.0000       6.698978       182.2884 
 144   0.0000       6.699815       182.3112 
 145   0.0000       6.701749       182.3639 
 146   0.0000       6.705498       182.4659 
 147   0.0000       6.708274       182.5414 
 148   0.0000       6.711119       182.6188 
 149   0.0000       6.714299       182.7054 
 150   0.0000       6.716117       182.7548 
 151   0.0000       6.720601       182.8768 
 152   0.0000       6.727068       183.0528 
 153   0.0000       6.727223       183.0571 
 154   0.0000       6.727355       183.0606 
 155   0.0000       6.743242       183.4930 
 156   0.0000       6.766501       184.1258 
 157   0.0000       6.777949       184.4374 
 158   0.0000       6.991632       190.2520 
 159   0.0000       7.102295       193.2633 
 160   0.0000       7.256573       197.4614 
 161   0.0000       8.005162       217.8315 
 162   0.0000       8.017666       218.1718 
 163   0.0000       8.020429       218.2470 
 164   0.0000       8.044922       218.9135 
 165   0.0000       8.052845       219.1291 
 166   0.0000       8.060336       219.3329 
 167   0.0000       8.067475       219.5272 
 168   0.0000       8.069919       219.5937 
 169   0.0000       8.071483       219.6362 
 170   0.0000       8.074762       219.7254 
 171   0.0000       8.082900       219.9469 
 172   0.0000       8.092467       220.2072 
 173   0.0000       8.142406       221.5661 
 174   0.0000       8.157348       221.9727 
 175   0.0000       8.188299       222.8150 
 176   0.0000       8.204760       223.2629 
 177   0.0000       8.237049       224.1415 
 178   0.0000       8.251575       224.5368 
 179   0.0000       8.281804       225.3593 
 180   0.0000       8.297643       225.7903 
 181   0.0000       8.315827       226.2852 
 182   0.0000       8.368430       227.7166 
 183   0.0000       8.487604       230.9594 
 184   0.0000       8.545834       232.5440 
 185   0.0000       8.608810       234.2576 
 186   0.0000      13.102209       356.5292 
 187   0.0000      55.933545      1522.0291 
 188   0.0000      56.047315      1525.1250 
 189   0.0000      56.185995      1528.8986 
 190   0.0000      56.247024      1530.5593 
 191   0.0000      56.288282      1531.6820 

                    ********************************
                    * MULLIKEN POPULATION ANALYSIS *
                    ********************************

-----------------------
MULLIKEN ATOMIC CHARGES
-----------------------
   0 P :    1.021161
   1 F :   -0.223876
   2 F :   -0.245394
   3 F :   -0.184261
   4 F :   -0.192652
   5 F :   -0.174978
Sum of atomic charges:   -0.0000000

--------------------------------
MULLIKEN REDUCED ORBITAL CHARGES
--------------------------------
  0 P s       :     5.555566  s :     5.555566
      pz      :     2.588146  p :     7.842449
      px      :     2.644805
      py      :     2.609498
      dz2     :     0.085639  d :     0.498909
      dxz     :     0.079425
      dyz     :     0.085046
      dx2y2   :     0.154255
      dxy     :     0.094543
      f0      :     0.008540  f :     0.081914
      f+1     :     0.010191
      f-1     :     0.008383
      f+2     :     0.015781
      f-2     :     0.008713
      f+3     :     0.013779
      f-3     :     0.016527
  1 F s       :     3.971642  s :     3.971642
      pz      :     1.925108  p :     5.248245
      px      :     1.930388
      py      :     1.392748
      dz2     :     0.000557  d :     0.003856
      dxz     :     0.000124
      dyz     :     0.000740
      dx2y2   :     0.001677
      dxy     :     0.000758
      f0      :     0.000013  f :     0.000133
      f+1     :     0.000001
      f-1     :     0.000024
      f+2     :     0.000017
      f-2     :     0.000005
      f+3     :     0.000029
      f-3     :     0.000044
  2 F s       :     3.992824  s :     3.992824
      pz      :     1.962594  p :     5.251219
      px      :     1.308272
      py      :     1.980354
      dz2     :     0.000224  d :     0.001285
      dxz     :     0.000167
      dyz     :     0.000002
      dx2y2   :     0.000722
      dxy     :     0.000170
      f0      :     0.000007  f :     0.000065
      f+1     :     0.000011
      f-1     :     0.000000
      f+2     :     0.000009
      f-2     :     0.000000
      f+3     :     0.000022
      f-3     :     0.000016
  3 F s       :     3.953692  s :     3.953692
      pz      :     1.892066  p :     5.223700
      px      :     1.878393
      py      :     1.453241
      dz2     :     0.000932  d :     0.006658
      dxz     :     0.000245
      dyz     :     0.001432
      dx2y2   :     0.002545
      dxy     :     0.001505
      f0      :     0.000021  f :     0.000211
      f+1     :     0.000003
      f-1     :     0.000038
      f+2     :     0.000027
      f-2     :     0.000009
      f+3     :     0.000045
      f-3     :     0.000067
  4 F s       :     3.945600  s :     3.945600
      pz      :     1.764317  p :     5.239343
      px      :     1.617720
      py      :     1.857305
      dz2     :     0.001229  d :     0.007476
      dxz     :     0.002524
      dyz     :     0.001167
      dx2y2   :     0.001210
      dxy     :     0.001345
      f0      :     0.000023  f :     0.000233
      f+1     :     0.000046
      f-1     :     0.000013
      f+2     :     0.000044
      f-2     :     0.000057
      f+3     :     0.000020
      f-3     :     0.000030
  5 F s       :     3.944448  s :     3.944448
      pz      :     1.790312  p :     5.222443
      px      :     1.610232
      py      :     1.821899
      dz2     :     0.001128  d :     0.007841
      dxz     :     0.002392
      dyz     :     0.001123
      dx2y2   :     0.001411
      dxy     :     0.001787
      f0      :     0.000024  f :     0.000246
      f+1     :     0.000040
      f-1     :     0.000011
      f+2     :     0.000043
      f-2     :     0.000060
      f+3     :     0.000025
      f-3     :     0.000043


                     *******************************
                     * LOEWDIN POPULATION ANALYSIS *
                     *******************************

----------------------
LOEWDIN ATOMIC CHARGES
----------------------
   0 P :    0.779531
   1 F :   -0.187935
   2 F :   -0.230430
   3 F :   -0.128849
   4 F :   -0.125287
   5 F :   -0.107031

-------------------------------
LOEWDIN REDUCED ORBITAL CHARGES
-------------------------------
  0 P s       :     5.272021  s :     5.272021
      pz      :     2.590314  p :     7.919158
      px      :     2.697271
      py      :     2.631572
      dz2     :     0.138251  d :     0.822359
      dxz     :     0.155084
      dyz     :     0.126663
      dx2y2   :     0.262088
      dxy     :     0.140273
      f0      :     0.019907  f :     0.206931
      f+1     :     0.025050
      f-1     :     0.022765
      f+2     :     0.039437
      f-2     :     0.025692
      f+3     :     0.028639
      f-3     :     0.045441
  1 F s       :     3.902732  s :     3.902732
      pz      :     1.914525  p :     5.278090
      px      :     1.921516
      py      :     1.442049
      dz2     :     0.001240  d :     0.006911
      dxz     :     0.000250
      dyz     :     0.000809
      dx2y2   :     0.003687
      dxy     :     0.000925
      f0      :     0.000013  f :     0.000202
      f+1     :     0.000002
      f-1     :     0.000048
      f+2     :     0.000017
      f-2     :     0.000008
      f+3     :     0.000030
      f-3     :     0.000084
  2 F s       :     3.965298  s :     3.965298
      pz      :     1.959608  p :     5.263315
      px      :     1.324797
      py      :     1.978910
      dz2     :     0.000350  d :     0.001745
      dxz     :     0.000146
      dyz     :     0.000001
      dx2y2   :     0.001088
      dxy     :     0.000159
      f0      :     0.000006  f :     0.000071
      f+1     :     0.000015
      f-1     :     0.000000
      f+2     :     0.000008
      f-2     :     0.000000
      f+3     :     0.000027
      f-3     :     0.000015
  3 F s       :     3.849178  s :     3.849178
      pz      :     1.873974  p :     5.266865
      px      :     1.863198
      py      :     1.529693
      dz2     :     0.002218  d :     0.012452
      dxz     :     0.000437
      dyz     :     0.001654
      dx2y2   :     0.006197
      dxy     :     0.001945
      f0      :     0.000021  f :     0.000354
      f+1     :     0.000006
      f-1     :     0.000086
      f+2     :     0.000031
      f-2     :     0.000013
      f+3     :     0.000059
      f-3     :     0.000137
  4 F s       :     3.831146  s :     3.831146
      pz      :     1.781441  p :     5.280136
      px      :     1.651577
      py      :     1.847119
      dz2     :     0.001437  d :     0.013607
      dxz     :     0.006079
      dyz     :     0.001924
      dx2y2   :     0.002035
      dxy     :     0.002131
      f0      :     0.000039  f :     0.000398
      f+1     :     0.000082
      f-1     :     0.000021
      f+2     :     0.000092
      f-2     :     0.000096
      f+3     :     0.000026
      f-3     :     0.000043
  5 F s       :     3.824804  s :     3.824804
      pz      :     1.799379  p :     5.267451
      px      :     1.653084
      py      :     1.814988
      dz2     :     0.001267  d :     0.014358
      dxz     :     0.005765
      dyz     :     0.001889
      dx2y2   :     0.002421
      dxy     :     0.003016
      f0      :     0.000050  f :     0.000418
      f+1     :     0.000056
      f-1     :     0.000016
      f+2     :     0.000087
      f-2     :     0.000110
      f+3     :     0.000032
      f-3     :     0.000068


                      *****************************
                      * MAYER POPULATION ANALYSIS *
                      *****************************

  NA   - Mulliken gross atomic population
  ZA   - Total nuclear charge
  QA   - Mulliken gross atomic charge
  VA   - Mayer's total valence
  BVA  - Mayer's bonded valence
  FA   - Mayer's free valence

  ATOM       NA         ZA         QA         VA         BVA        FA
  0 P     13.9788    15.0000     1.0212     4.3361     4.3361    -0.0000
  1 F      9.2239     9.0000    -0.2239     1.0957     1.0957     0.0000
  2 F      9.2454     9.0000    -0.2454     1.0222     1.0222    -0.0000
  3 F      9.1843     9.0000    -0.1843     1.1782     1.1782    -0.0000
  4 F      9.1927     9.0000    -0.1927     1.1650     1.1650    -0.0000
  5 F      9.1750     9.0000    -0.1750     1.1987     1.1987    -0.0000

  Mayer bond orders larger than 0.1
B(  0-P ,  1-F ) :   0.7646 B(  0-P ,  2-F ) :   0.5913 B(  0-P ,  3-F ) :   0.9418 
B(  0-P ,  4-F ) :   1.0062 B(  0-P ,  5-F ) :   1.0321 B(  1-F ,  2-F ) :   0.2009 
B(  2-F ,  3-F ) :   0.1371 

-------
TIMINGS
-------

Total SCF time: 0 days 0 hours 0 min 17 sec 

Total time                  ....      17.995 sec
Sum of individual times     ....      17.581 sec  ( 97.7%)

Fock matrix formation       ....      15.313 sec  ( 85.1%)
  Split-RI-J                ....       8.538 sec  ( 55.8% of F)
  XC integration            ....       6.428 sec  ( 42.0% of F)
    Basis function eval.    ....       2.366 sec  ( 36.8% of XC)
    Density eval.           ....       1.279 sec  ( 19.9% of XC)
    XC-Functional eval.     ....       0.384 sec  (  6.0% of XC)
    XC-Potential eval.      ....       1.812 sec  ( 28.2% of XC)
Diagonalization             ....       0.149 sec  (  0.8%)
Density matrix formation    ....       0.013 sec  (  0.1%)
Population analysis         ....       0.026 sec  (  0.1%)
Initial guess               ....       0.829 sec  (  4.6%)
Orbital Transformation      ....       0.000 sec  (  0.0%)
Orbital Orthonormalization  ....       0.000 sec  (  0.0%)
DIIS solution               ....       0.202 sec  (  1.1%)
SOSCF solution              ....       0.092 sec  (  0.5%)
Grid generation             ....       0.956 sec  (  5.3%)

-------------------------   --------------------
FINAL SINGLE POINT ENERGY      -840.015793245964
-------------------------   --------------------

------------------------------------------------------------------------------
                         ORCA SCF GRADIENT CALCULATION
------------------------------------------------------------------------------

Gradient of the Kohn-Sham DFT energy:
Kohn-Sham wavefunction type      ... RKS
Hartree-Fock exchange scaling    ...    0.000
Number of operators              ...    1
Number of atoms                  ...    6
Basis set dimensions             ...  192
Integral neglect threshold       ... 2.5e-11
Integral primitive cutoff        ... 2.5e-12

Nuclear repulsion gradient       ... done
One Electron Gradient            ... done
Pre-screening matrix             ... done
RI-J gradient                    ... done
Exchange-correlation gradient    ... done

------------------
CARTESIAN GRADIENT
------------------

   1   P   :   -0.116580280   -0.000179801   -0.015287980
   2   F   :    0.024202035    0.063805617   -0.021653354
   3   F   :   -0.059834074    0.002483725    0.001125826
   4   F   :    0.037830528   -0.066395126    0.034512211
   5   F   :    0.055175154   -0.058904366    0.027013520
   6   F   :    0.059206637    0.059189951   -0.025710224

Difference to translation invariance:
           :    0.0000000000    0.0000000000   -0.0000000000

Norm of the cartesian gradient     ...    0.2109081086
RMS gradient                       ...    0.0497115179
MAX gradient                       ...    0.1165802802

-------
TIMINGS
-------

Total SCF gradient time            ...        3.479 sec

One electron gradient       ....       0.067 sec  (  1.9%)
Prescreening matrices       ....       0.353 sec  ( 10.1%)
RI-J Coulomb gradient       ....       0.902 sec  ( 25.9%)
XC gradient                 ....       1.992 sec  ( 57.3%)
------------------------------------------------------------------------------
                         ORCA GEOMETRY RELAXATION STEP
------------------------------------------------------------------------------

Reading the OPT-File                    .... done
Getting information on internals        .... done
Copying old internal coords+grads       .... done
Making the new internal coordinates     .... (new redundants).... done
Validating the new internal coordinates .... (new redundants).... done
Calculating the B-matrix                .... done
Calculating the G,G- and P matrices     .... done
Transforming gradient to internals      .... done
Projecting the internal gradient        .... done
Number of atoms                         ....   6
Number of internal coordinates          ....  22
Current Energy                          ....  -840.015793246 Eh
Current gradient norm                   ....     0.210908109 Eh/bohr
Maximum allowed component of the step   ....  0.300
Current trust radius                    ....  0.300
Evaluating the initial hessian          ....  (Almloef) done
Projecting the Hessian                  .... done
Forming the augmented Hessian           .... done
Diagonalizing the augmented Hessian     .... done
Last element of RFO vector              ....  0.841819693
Lowest eigenvalues of augmented Hessian:
 -0.121822602  0.024991255  0.058760487  0.071105530  0.102837933
Length of the computed step             ....  0.641181055
Warning: the length of the step is outside the trust region - taking restricted step instead
The input lambda is                     ....    -0.121823
   iter:   1  x=   -0.216874  g=    3.378300 f(x)=     0.321113
   iter:   2  x=   -0.330832  g=    1.165081 f(x)=     0.132770
   iter:   3  x=   -0.417071  g=    0.513794 f(x)=     0.044309
   iter:   4  x=   -0.446092  g=    0.319855 f(x)=     0.009283
   iter:   5  x=   -0.448371  g=    0.277642 f(x)=     0.000633
   iter:   6  x=   -0.448383  g=    0.274662 f(x)=     0.000003
   iter:   7  x=   -0.448383  g=    0.274645 f(x)=     0.000000
   iter:   8  x=   -0.448383  g=    0.274645 f(x)=     0.000000
The output lambda is                    ....    -0.448383 (8 iterations)
The final length of the internal step   ....  0.300000000
Converting the step to cartesian space:
 Initial RMS(Int)=    0.0639602149
Transforming coordinates:
 Iter   0:  RMS(Cart)=    0.0977930595 RMS(Int)=    1.3269156790
 Iter   1:  RMS(Cart)=    0.0044262654 RMS(Int)=    0.0037611534
 Iter   2:  RMS(Cart)=    0.0002955718 RMS(Int)=    0.0001930167
 Iter   3:  RMS(Cart)=    0.0000225938 RMS(Int)=    0.0000195503
 Iter   4:  RMS(Cart)=    0.0000016668 RMS(Int)=    0.0000012082
 Iter   5:  RMS(Cart)=    0.0000001290 RMS(Int)=    0.0000001035
 Iter   6:  RMS(Cart)=    0.0000000099 RMS(Int)=    0.0000000081
done
Storing new coordinates                 .... done

                                .--------------------.
          ----------------------|Geometry convergence|-------------------------
          Item                value                   Tolerance       Converged
          ---------------------------------------------------------------------
          RMS gradient        0.0436643780            0.0001000000      NO
          MAX gradient        0.0936180869            0.0003000000      NO
          RMS step            0.0639602149            0.0020000000      NO
          MAX step            0.1303150746            0.0040000000      NO
          ........................................................
          Max(Bonds)      0.0513      Max(Angles)    7.47
          Max(Dihed)        5.53      Max(Improp)    0.00
          ---------------------------------------------------------------------

The optimization has not yet converged - more geometry cycles are needed


    ---------------------------------------------------------------------------
                         Redundant Internal Coordinates
                            (Angstroem and degrees)

        Definition                    Value    dE/dq     Step     New-Value
    ----------------------------------------------------------------------------
     1. B(F   1,P   0)                2.0593  0.042574 -0.0387    2.0206   
     2. B(F   2,F   1)                3.1519  0.032740 -0.0369    3.1150   
     3. B(F   2,P   0)                2.4434  0.035310 -0.0395    2.4039   
     4. B(F   3,P   0)                1.8798  0.069147 -0.0496    1.8302   
     5. B(F   4,P   0)                1.8390  0.071893 -0.0485    1.7905   
     6. B(F   5,P   0)                1.8189  0.078492 -0.0513    1.7676   
     7. A(F   4,P   0,F   5)           89.33 -0.015586    1.64     90.98   
     8. A(F   1,P   0,F   5)           70.70 -0.031106    2.97     73.67   
     9. A(F   3,P   0,F   5)          106.65  0.015084   -1.80    104.84   
    10. A(F   1,P   0,F   4)          106.22  0.021359   -1.76    104.46   
    11. A(F   1,P   0,F   2)           88.42 -0.006933    0.63     89.05   
    12. A(F   2,P   0,F   3)           94.94  0.061990   -4.89     90.05   
    13. A(F   2,P   0,F   4)          133.26  0.016817   -1.47    131.78   
    14. A(F   2,P   0,F   5)          136.98 -0.003531    0.09    137.08   
    15. A(F   3,P   0,F   4)           71.42 -0.093618    7.47     78.89   
    16. A(P   0,F   1,F   2)           50.80  0.002403   -0.29     50.51   
    17. A(P   0,F   2,F   1)           40.78  0.004530   -0.33     40.44   
    18. D(F   2,F   1,P   0,F   4)   -134.90 -0.020722    1.78   -133.12   
    19. D(F   2,F   1,P   0,F   5)    141.68  0.015203   -1.72    139.97   
    20. D(F   1,F   2,P   0,F   3)    180.00 -0.046243    3.72    183.72   
    21. D(F   1,F   2,P   0,F   5)    -59.06  0.056585   -5.53    -64.59   
    22. D(F   1,F   2,P   0,F   4)    110.96  0.028822   -2.35    108.61   
    ----------------------------------------------------------------------------

         *************************************************************
         *                GEOMETRY OPTIMIZATION CYCLE   2            *
         *************************************************************
---------------------------------
CARTESIAN COORDINATES (ANGSTROEM)
---------------------------------
  P     -0.689993    0.283658    0.038487
  F     -0.751368    2.303386    0.027978
  F     -3.093645    0.250242    0.061257
  F     -0.666773   -1.543274   -0.067812
  F      0.520832   -0.119294    1.294398
  F      0.584636    0.813942   -1.065339

----------------------------
CARTESIAN COORDINATES (A.U.)
----------------------------
  NO LB      ZA    FRAG     MASS         X           Y           Z
   0 P    15.0000    0    30.974   -1.303898    0.536035    0.072730
   1 F     9.0000    0    18.998   -1.419879    4.352769    0.052871
   2 F     9.0000    0    18.998   -5.846141    0.472889    0.115759
   3 F     9.0000    0    18.998   -1.260018   -2.916365   -0.128147
   4 F     9.0000    0    18.998    0.984230   -0.225433    2.446058
   5 F     9.0000    0    18.998    1.104803    1.538128   -2.013198

--------------------------------
INTERNAL COORDINATES (ANGSTROEM)
--------------------------------
 P      0   0   0     0.000000000000     0.00000000     0.00000000
 F      1   0   0     2.020688106496     0.00000000     0.00000000
 F      1   2   0     2.403991563032    89.05881353     0.00000000
 F      1   2   3     1.830168711834   176.23384428    74.97114422
 F      1   2   3     1.790469370598   104.42632523   226.84638340
 F      1   2   3     1.767573139250    73.66756703   140.06397647

---------------------------
INTERNAL COORDINATES (A.U.)
---------------------------
 P      0   0   0     0.000000000000     0.00000000     0.00000000
 F      1   0   0     3.818547123350     0.00000000     0.00000000
 F      1   2   0     4.542885682387    89.05881353     0.00000000
 F      1   2   3     3.458517644238   176.23384428    74.97114422
 F      1   2   3     3.383496761605   104.42632523   226.84638340
 F      1   2   3     3.340229154858    73.66756703   140.06397647

 One Electron integrals                  ... done
 Pre-screening matrix                    ... done

Diagonalization of the overlap matrix:
Smallest eigenvalue                        ... 4.152e-03
Time for diagonalization                   ...    0.007 sec
Threshold for overlap eigenvalues          ... 1.000e-08
Number of eigenvalues below threshold      ... 0
Time for construction of square roots      ...    0.005 sec
Total time needed                          ...    0.013 sec

-------------------
DFT GRID GENERATION
-------------------

General Integration Accuracy     IntAcc      ...  4.340
Radial Grid Type                 RadialGrid  ... Gauss-Chebyshev
Angular Grid (max. acc.)         AngularGrid ... Lebedev-110
Angular grid pruning method      GridPruning ... 3 (G Style)
Weight generation scheme         WeightScheme... Becke
Basis function cutoff            BFCut       ...    1.0000e-11
Integration weight cutoff        WCut        ...    1.0000e-14
Grids for H and He will be reduced by one unit

# of grid points (after initial pruning)     ...  10506 (   0.0 sec)
# of grid points (after weights+screening)   ...  10261 (   0.0 sec)
nearest neighbour list constructed           ...    0.0 sec
Grid point re-assignment to atoms done       ...    0.0 sec
Grid point division into batches done        ...    0.0 sec
Reduced shell lists constructed in    0.2 sec

Total number of grid points                  ...    10261
Total number of batches                      ...      164
Average number of points per batch           ...       62
Average number of grid points per atom       ...     1710
Average number of shells per batch           ...    39.64 (58.30%)
Average number of basis functions per batch  ...   114.82 (59.80%)
Average number of large shells per batch     ...    30.36 (76.58%)
Average number of large basis fcns per batch ...    87.29 (76.03%)
Maximum spatial batch extension              ...  20.95, 22.87, 26.79 au
Average spatial batch extension              ...   4.58,  4.51,  4.18 au

Time for grid setup =    0.176 sec

--------------
SCF ITERATIONS
--------------
ITER       Energy         Delta-E        Max-DP      RMS-DP      [F,P]     Damp
               ***  Starting incremental Fock matrix formation  ***
  0   -840.0655818836   0.000000000000 0.00845921  0.00017612  0.0187002 0.7000
  1   -840.0675512462  -0.001969362620 0.00779412  0.00017483  0.0121739 0.7000
                               ***Turning on DIIS***
  2   -840.0690565880  -0.001505341803 0.02160245  0.00047743  0.0090739 0.0000
                      *** Initiating the SOSCF procedure ***
                           *** Shutting down DIIS ***
                      *** Re-Reading the Fockian *** 
                      *** Removing any level shift *** 
ITER      Energy       Delta-E        Grad      Rot      Max-DP    RMS-DP
  3   -840.07263019  -0.0035736020  0.001419  0.001419  0.005019  0.000072
               *** Restarting incremental Fock matrix formation ***
  4   -840.07265210  -0.0000219054  0.001639  0.019896  0.017969  0.000293
  5   -840.07106541   0.0015866863  0.014526  0.023107  0.017116  0.000264
  6   -840.07247685  -0.0014114384  0.003545  0.018776  0.037928  0.000432
  7   -840.06969371   0.0027831423  0.013480  0.015835  0.030430  0.000341
  8   -840.07267395  -0.0029802451  0.002197  0.017307  0.007273  0.000206
  9   -840.07178877   0.0008851839  0.007140  0.012913  0.006819  0.000162
 10   -840.07273864  -0.0009498735  0.000297  0.001687  0.000978  0.000026
 11   -840.07272468   0.0000139570  0.001027  0.001283  0.000860  0.000020
 12   -840.07274013  -0.0000154501  0.000064  0.000238  0.000543  0.000007
 13   -840.07273983   0.0000002991  0.000129  0.000187  0.000188  0.000004
 14   -840.07274019  -0.0000003601  0.000048  0.000204  0.000428  0.000005
 15   -840.07274015   0.0000000414  0.000072  0.000106  0.000278  0.000003
                  ***Gradient check signals convergence***
              ***Rediagonalizing the Fockian in SOSCF/NRSCF***

               *****************************************************
               *                     SUCCESS                       *
               *           SCF CONVERGED AFTER  16 CYCLES          *
               *****************************************************

Setting up the final grid:

General Integration Accuracy     IntAcc      ...  4.670
Radial Grid Type                 RadialGrid  ... Gauss-Chebyshev
Angular Grid (max. acc.)         AngularGrid ... Lebedev-302
Angular grid pruning method      GridPruning ... 3 (G Style)
Weight generation scheme         WeightScheme... Becke
Basis function cutoff            BFCut       ...    1.0000e-11
Integration weight cutoff        WCut        ...    1.0000e-14
Grids for H and He will be reduced by one unit

# of grid points (after initial pruning)     ...  38206 (   0.0 sec)
# of grid points (after weights+screening)   ...  37253 (   0.0 sec)
nearest neighbour list constructed           ...    0.0 sec
Grid point re-assignment to atoms done       ...    0.0 sec
Grid point division into batches done        ...    0.2 sec
Reduced shell lists constructed in    0.7 sec

Total number of grid points                  ...    37253
Total number of batches                      ...      585
Average number of points per batch           ...       63
Average number of grid points per atom       ...     6209
Average number of shells per batch           ...    34.66 (50.96%)
Average number of basis functions per batch  ...    99.51 (51.83%)
Average number of large shells per batch     ...    26.37 (76.08%)
Average number of large basis fcns per batch ...    75.32 (75.69%)
Maximum spatial batch extension              ...  16.88, 18.27, 18.41 au
Average spatial batch extension              ...   3.07,  2.99,  3.04 au

Final grid set up in    0.7 sec
Final integration                            ... done (   0.6 sec)
Change in XC energy                          ...     0.000382493
Integrated number of electrons               ...    60.000018905
Previous integrated no of electrons          ...    60.000691964
Total Energy       :         -840.07235777 Eh          -22859.53101 eV
  Last Energy change         ...   -1.0810e-07  Tolerance :   1.0000e-08
  Last MAX-Density change    ...    5.9285e-06  Tolerance :   1.0000e-07
             **** THE GBW FILE WAS UPDATED (opt.gbw) ****
             **** DENSITY FILE WAS UPDATED (opt.scfp.tmp) ****
             **** ENERGY FILE WAS UPDATED (opt.en.tmp) ****
Total SCF time: 0 days 0 hours 0 min 11 sec 

-------------------------   --------------------
FINAL SINGLE POINT ENERGY      -840.072357767485
-------------------------   --------------------

------------------------------------------------------------------------------
                         ORCA SCF GRADIENT CALCULATION
------------------------------------------------------------------------------

Gradient of the Kohn-Sham DFT energy:
Kohn-Sham wavefunction type      ... RKS
Hartree-Fock exchange scaling    ...    0.000
Number of operators              ...    1
Number of atoms                  ...    6
Basis set dimensions             ...  192
Integral neglect threshold       ... 2.5e-11
Integral primitive cutoff        ... 2.5e-12

Nuclear repulsion gradient       ... done
One Electron Gradient            ... done
Pre-screening matrix             ... done
RI-J gradient                    ... done
Exchange-correlation gradient    ... done

------------------
CARTESIAN GRADIENT
------------------

   1   P   :   -0.097491749   -0.000777624   -0.007084115
   2   F   :    0.020171661    0.069529745   -0.019928667
   3   F   :   -0.064122006   -0.000667352    0.000539410
   4   F   :    0.020544301   -0.078497781    0.017470375
   5   F   :    0.062107115   -0.041588751    0.037199904
   6   F   :    0.058790678    0.052001764   -0.028196907

Difference to translation invariance:
           :    0.0000000000   -0.0000000000   -0.0000000000

Norm of the cartesian gradient     ...    0.2003041665
RMS gradient                       ...    0.0472121448
MAX gradient                       ...    0.0974917490

-------
TIMINGS
-------

Total SCF gradient time            ...        3.292 sec

One electron gradient       ....       0.067 sec  (  2.0%)
Prescreening matrices       ....       0.340 sec  ( 10.3%)
RI-J Coulomb gradient       ....       0.837 sec  ( 25.4%)
XC gradient                 ....       1.894 sec  ( 57.5%)
------------------------------------------------------------------------------
                         ORCA GEOMETRY RELAXATION STEP
------------------------------------------------------------------------------

Reading the OPT-File                    .... done
Getting information on internals        .... done
Copying old internal coords+grads       .... done
Making the new internal coordinates     .... (new redundants).... done
Validating the new internal coordinates .... (new redundants).... done
Calculating the B-matrix                .... done
Calculating the G,G- and P matrices     .... done
Transforming gradient to internals      .... done
Projecting the internal gradient        .... done
Number of atoms                         ....   6
Number of internal coordinates          ....  22
Current Energy                          ....  -840.072357767 Eh
Current gradient norm                   ....     0.200304167 Eh/bohr
Maximum allowed component of the step   ....  0.300
Current trust radius                    ....  0.300
Updating the Hessian (BFGS)             .... done
Forming the augmented Hessian           .... done
Diagonalizing the augmented Hessian     .... done
Last element of RFO vector              ....  0.745681687
Lowest eigenvalues of augmented Hessian:
 -0.161344428  0.022328025  0.060374148  0.073347294  0.102390147
Length of the computed step             ....  0.893547959
Warning: the length of the step is outside the trust region - taking restricted step instead
The input lambda is                     ....    -0.161344
   iter:   1  x=   -0.249541  g=    8.032359 f(x)=     0.708428
   iter:   2  x=   -0.360492  g=    2.655496 f(x)=     0.294630
   iter:   3  x=   -0.471904  g=    1.000600 f(x)=     0.111479
   iter:   4  x=   -0.542140  g=    0.479942 f(x)=     0.033709
   iter:   5  x=   -0.559993  g=    0.326849 f(x)=     0.005835
   iter:   6  x=   -0.560853  g=    0.298654 f(x)=     0.000257
   iter:   7  x=   -0.560855  g=    0.297380 f(x)=     0.000001
   iter:   8  x=   -0.560855  g=    0.297377 f(x)=     0.000000
   iter:   9  x=   -0.560855  g=    0.297377 f(x)=     0.000000
The output lambda is                    ....    -0.560855 (9 iterations)
The final length of the internal step   ....  0.300000000
Converting the step to cartesian space:
 Initial RMS(Int)=    0.0639602149
Transforming coordinates:
 Iter   0:  RMS(Cart)=    0.0828826843 RMS(Int)=    0.0635855461
 Iter   1:  RMS(Cart)=    0.0029525326 RMS(Int)=    0.0021593679
 Iter   2:  RMS(Cart)=    0.0001610999 RMS(Int)=    0.0001240595
 Iter   3:  RMS(Cart)=    0.0000070777 RMS(Int)=    0.0000046103
 Iter   4:  RMS(Cart)=    0.0000003564 RMS(Int)=    0.0000003155
 Iter   5:  RMS(Cart)=    0.0000000152 RMS(Int)=    0.0000000096
done
Storing new coordinates                 .... done

                                .--------------------.
          ----------------------|Geometry convergence|-------------------------
          Item                value                   Tolerance       Converged
          ---------------------------------------------------------------------
          Energy change      -0.0565645215            0.0000050000      NO
          RMS gradient        0.0389185332            0.0001000000      NO
          MAX gradient        0.0776048344            0.0003000000      NO
          RMS step            0.0639602149            0.0020000000      NO
          MAX step            0.1281881622            0.0040000000      NO
          ........................................................
          Max(Bonds)      0.0678      Max(Angles)    4.85
          Max(Dihed)        4.85      Max(Improp)    0.00
          ---------------------------------------------------------------------

The optimization has not yet converged - more geometry cycles are needed


    ---------------------------------------------------------------------------
                         Redundant Internal Coordinates
                            (Angstroem and degrees)

        Definition                    Value    dE/dq     Step     New-Value
    ----------------------------------------------------------------------------
     1. B(F   1,P   0)                2.0207  0.048614 -0.0464    1.9743   
     2. B(F   2,F   1)                3.1149  0.031603 -0.0298    3.0851   
     3. B(F   2,P   0)                2.4040  0.040304 -0.0400    2.3640   
     4. B(F   3,P   0)                1.8302  0.077605 -0.0678    1.7623   
     5. B(F   4,P   0)                1.7905  0.077454 -0.0655    1.7250   
     6. B(F   5,P   0)                1.7676  0.075605 -0.0624    1.7052   
     7. A(F   4,P   0,F   5)           91.03 -0.020070    1.97     93.00   
     8. A(F   1,P   0,F   5)           73.67 -0.023138    2.22     75.89   
     9. A(F   3,P   0,F   5)          104.72  0.016567   -1.57    103.15   
    10. A(F   1,P   0,F   4)          104.43  0.015914   -1.49    102.94   
    11. A(F   1,P   0,F   2)           89.06 -0.010179    1.08     90.14   
    12. A(F   2,P   0,F   3)           89.96  0.041414   -3.72     86.24   
    13. A(F   2,P   0,F   4)          131.79  0.017688   -1.73    130.05   
    14. A(F   2,P   0,F   5)          136.98  0.000556   -0.00    136.98   
    15. A(F   3,P   0,F   4)           78.90 -0.055927    4.85     83.75   
    16. A(P   0,F   1,F   2)           50.50  0.004047   -0.46     50.05   
    17. A(P   0,F   2,F   1)           40.44  0.006132   -0.63     39.81   
    18. D(F   2,F   1,P   0,F   4)   -133.15 -0.018716    1.79   -131.36   
    19. D(F   2,F   1,P   0,F   5)    140.06  0.014153   -1.52    138.54   
    20. D(F   1,F   2,P   0,F   3)   -176.36 -0.024825    2.04   -174.32   
    21. D(F   1,F   2,P   0,F   5)    -64.54  0.048503   -4.85    -69.39   
    22. D(F   1,F   2,P   0,F   4)    108.63  0.017297   -1.54    107.09   
    ----------------------------------------------------------------------------

         *************************************************************
         *                GEOMETRY OPTIMIZATION CYCLE   3            *
         *************************************************************
---------------------------------
CARTESIAN COORDINATES (ANGSTROEM)
---------------------------------
  P     -0.660850    0.291023    0.048305
  F     -0.731088    2.264175    0.048252
  F     -3.023045    0.199450    0.073256
  F     -0.712752   -1.462232   -0.122651
  F      0.477030   -0.053570    1.298172
  F      0.554396    0.749814   -1.056363

----------------------------
CARTESIAN COORDINATES (A.U.)
----------------------------
  NO LB      ZA    FRAG     MASS         X           Y           Z
   0 P    15.0000    0    30.974   -1.248825    0.549954    0.091282
   1 F     9.0000    0    18.998   -1.381556    4.278671    0.091182
   2 F     9.0000    0    18.998   -5.712728    0.376905    0.138434
   3 F     9.0000    0    18.998   -1.346907   -2.763218   -0.231777
   4 F     9.0000    0    18.998    0.901456   -0.101233    2.453190
   5 F     9.0000    0    18.998    1.047656    1.416943   -1.996237

--------------------------------
INTERNAL COORDINATES (ANGSTROEM)
--------------------------------
 P      0   0   0     0.000000000000     0.00000000     0.00000000
 F      1   0   0     1.974402137628     0.00000000     0.00000000
 F      1   2   0     2.364101718351    90.18133336     0.00000000
 F      1   2   3     1.762334456560   173.29870855    56.85924597
 F      1   2   3     1.725017209101   102.89242388   228.61678484
 F      1   2   3     1.705169132309    75.90368590   138.69634109

---------------------------
INTERNAL COORDINATES (A.U.)
---------------------------
 P      0   0   0     0.000000000000     0.00000000     0.00000000
 F      1   0   0     3.731079318346     0.00000000     0.00000000
 F      1   2   0     4.467504800416    90.18133336     0.00000000
 F      1   2   3     3.330329479271   173.29870855    56.85924597
 F      1   2   3     3.259810101502   102.89242388   228.61678484
 F      1   2   3     3.222302672081    75.90368590   138.69634109

 One Electron integrals                  ... done
 Pre-screening matrix                    ... done

Diagonalization of the overlap matrix:
Smallest eigenvalue                        ... 3.745e-03
Time for diagonalization                   ...    0.007 sec
Threshold for overlap eigenvalues          ... 1.000e-08
Number of eigenvalues below threshold      ... 0
Time for construction of square roots      ...    0.005 sec
Total time needed                          ...    0.013 sec

-------------------
DFT GRID GENERATION
-------------------

General Integration Accuracy     IntAcc      ...  4.340
Radial Grid Type                 RadialGrid  ... Gauss-Chebyshev
Angular Grid (max. acc.)         AngularGrid ... Lebedev-110
Angular grid pruning method      GridPruning ... 3 (G Style)
Weight generation scheme         WeightScheme... Becke
Basis function cutoff            BFCut       ...    1.0000e-11
Integration weight cutoff        WCut        ...    1.0000e-14
Grids for H and He will be reduced by one unit

# of grid points (after initial pruning)     ...  10506 (   0.0 sec)
# of grid points (after weights+screening)   ...  10262 (   0.0 sec)
nearest neighbour list constructed           ...    0.0 sec
Grid point re-assignment to atoms done       ...    0.0 sec
Grid point division into batches done        ...    0.0 sec
Reduced shell lists constructed in    0.2 sec

Total number of grid points                  ...    10262
Total number of batches                      ...      164
Average number of points per batch           ...       62
Average number of grid points per atom       ...     1710
Average number of shells per batch           ...    40.11 (58.98%)
Average number of basis functions per batch  ...   116.12 (60.48%)
Average number of large shells per batch     ...    30.87 (76.97%)
Average number of large basis fcns per batch ...    88.50 (76.21%)
Maximum spatial batch extension              ...  20.95, 26.79, 26.79 au
Average spatial batch extension              ...   4.47,  4.44,  4.35 au

Time for grid setup =    0.174 sec

--------------
SCF ITERATIONS
--------------
ITER       Energy         Delta-E        Max-DP      RMS-DP      [F,P]     Damp
               ***  Starting incremental Fock matrix formation  ***
  0   -840.1187330217   0.000000000000 0.00965073  0.00017263  0.0206475 0.7000
  1   -840.1205378318  -0.001804810064 0.00957583  0.00016602  0.0120117 0.7000
                               ***Turning on DIIS***
  2   -840.1218574734  -0.001319641628 0.02617798  0.00043463  0.0071102 0.0000
                      *** Initiating the SOSCF procedure ***
                           *** Shutting down DIIS ***
                      *** Re-Reading the Fockian *** 
                      *** Removing any level shift *** 
ITER      Energy       Delta-E        Grad      Rot      Max-DP    RMS-DP
  3   -840.12492257  -0.0030651009  0.001130  0.001130  0.004373  0.000062
               *** Restarting incremental Fock matrix formation ***
  4   -840.12492539  -0.0000028114  0.001534  0.014316  0.016067  0.000236
  5   -840.12394725   0.0009781391  0.012073  0.019617  0.013339  0.000208
  6   -840.12483373  -0.0008864871  0.003083  0.015991  0.026694  0.000307
  7   -840.12334853   0.0014852066  0.009657  0.011813  0.021890  0.000243
  8   -840.12495004  -0.0016015177  0.001524  0.009465  0.004287  0.000122
  9   -840.12464734   0.0003027052  0.004191  0.006752  0.004350  0.000094
 10   -840.12498103  -0.0003336926  0.000094  0.000518  0.000583  0.000009
 11   -840.12498051   0.0000005238  0.000191  0.000275  0.000204  0.000005
 12   -840.12498120  -0.0000006896  0.000051  0.000395  0.000545  0.000006
 13   -840.12498114   0.0000000569  0.000071  0.000192  0.000321  0.000003
 14   -840.12498128  -0.0000001431  0.000020  0.000069  0.000088  0.000002
 15   -840.12498124   0.0000000456  0.000045  0.000048  0.000083  0.000001
                  ***Gradient check signals convergence***
              ***Rediagonalizing the Fockian in SOSCF/NRSCF***

               *****************************************************
               *                     SUCCESS                       *
               *           SCF CONVERGED AFTER  16 CYCLES          *
               *****************************************************

Setting up the final grid:

General Integration Accuracy     IntAcc      ...  4.670
Radial Grid Type                 RadialGrid  ... Gauss-Chebyshev
Angular Grid (max. acc.)         AngularGrid ... Lebedev-302
Angular grid pruning method      GridPruning ... 3 (G Style)
Weight generation scheme         WeightScheme... Becke
Basis function cutoff            BFCut       ...    1.0000e-11
Integration weight cutoff        WCut        ...    1.0000e-14
Grids for H and He will be reduced by one unit

# of grid points (after initial pruning)     ...  38206 (   0.0 sec)
# of grid points (after weights+screening)   ...  37221 (   0.0 sec)
nearest neighbour list constructed           ...    0.0 sec
Grid point re-assignment to atoms done       ...    0.0 sec
Grid point division into batches done        ...    0.2 sec
Reduced shell lists constructed in    0.7 sec

Total number of grid points                  ...    37221
Total number of batches                      ...      586
Average number of points per batch           ...       63
Average number of grid points per atom       ...     6204
Average number of shells per batch           ...    35.26 (51.85%)
Average number of basis functions per batch  ...   101.35 (52.78%)
Average number of large shells per batch     ...    26.95 (76.43%)
Average number of large basis fcns per batch ...    76.84 (75.82%)
Maximum spatial batch extension              ...  16.88, 16.89, 19.04 au
Average spatial batch extension              ...   3.01,  2.95,  3.02 au

Final grid set up in    0.8 sec
Final integration                            ... done (   0.7 sec)
Change in XC energy                          ...     0.000185716
Integrated number of electrons               ...    60.000038279
Previous integrated no of electrons          ...    60.000534892
Total Energy       :         -840.12479558 Eh          -22860.95792 eV
  Last Energy change         ...   -5.2660e-08  Tolerance :   1.0000e-08
  Last MAX-Density change    ...    4.4691e-06  Tolerance :   1.0000e-07
             **** THE GBW FILE WAS UPDATED (opt.gbw) ****
             **** DENSITY FILE WAS UPDATED (opt.scfp.tmp) ****
             **** ENERGY FILE WAS UPDATED (opt.en.tmp) ****
Total SCF time: 0 days 0 hours 0 min 11 sec 

-------------------------   --------------------
FINAL SINGLE POINT ENERGY      -840.124795575149
-------------------------   --------------------

------------------------------------------------------------------------------
                         ORCA SCF GRADIENT CALCULATION
------------------------------------------------------------------------------

Gradient of the Kohn-Sham DFT energy:
Kohn-Sham wavefunction type      ... RKS
Hartree-Fock exchange scaling    ...    0.000
Number of operators              ...    1
Number of atoms                  ...    6
Basis set dimensions             ...  192
Integral neglect threshold       ... 2.5e-11
Integral primitive cutoff        ... 2.5e-12

Nuclear repulsion gradient       ... done
One Electron Gradient            ... done
Pre-screening matrix             ... done
RI-J gradient                    ... done
Exchange-correlation gradient    ... done

------------------
CARTESIAN GRADIENT
------------------

   1   P   :   -0.073417965   -0.004482252   -0.002683007
   2   F   :    0.019575972    0.072315839   -0.019402122
   3   F   :   -0.068130416   -0.004585799    0.000110829
   4   F   :    0.012531113   -0.075193344    0.010724110
   5   F   :    0.057797726   -0.033586810    0.034385648
   6   F   :    0.051643570    0.045532366   -0.023135457

Difference to translation invariance:
           :   -0.0000000000   -0.0000000000   -0.0000000000

[...]
  11   2.0000      -1.168231       -31.7892 
  12   2.0000      -1.168152       -31.7870 
  13   2.0000      -1.134100       -30.8604 
  14   2.0000      -1.105700       -30.0876 
  15   2.0000      -0.649947       -17.6860 
  16   2.0000      -0.551795       -15.0151 
  17   2.0000      -0.551752       -15.0139 
  18   2.0000      -0.537634       -14.6298 
  19   2.0000      -0.473851       -12.8941 
  20   2.0000      -0.473734       -12.8909 
  21   2.0000      -0.460828       -12.5398 
  22   2.0000      -0.460792       -12.5388 
  23   2.0000      -0.446525       -12.1506 
  24   2.0000      -0.422712       -11.5026 
  25   2.0000      -0.403403       -10.9771 
  26   2.0000      -0.387882       -10.5548 
  27   2.0000      -0.387837       -10.5536 
  28   2.0000      -0.363685        -9.8964 
  29   2.0000      -0.363610        -9.8943 
  30   0.0000      -0.044481        -1.2104 
  31   0.0000       0.029688         0.8079 
  32   0.0000       0.030328         0.8253 
  33   0.0000       0.122062         3.3215 
  34   0.0000       0.165679         4.5084 
  35   0.0000       0.169471         4.6115 
  36   0.0000       0.169826         4.6212 
  37   0.0000       0.237549         6.4640 
  38   0.0000       0.327124         8.9015 
  39   0.0000       0.327494         8.9116 
  40   0.0000       0.380120        10.3436 
  41   0.0000       0.386944        10.5293 
  42   0.0000       0.387120        10.5341 
  43   0.0000       0.436269        11.8715 
  44   0.0000       0.436620        11.8810 
  45   0.0000       0.483807        13.1651 
  46   0.0000       0.489572        13.3219 
  47   0.0000       0.536255        14.5922 
  48   0.0000       0.536524        14.5995 
  49   0.0000       0.565765        15.3953 
  50   0.0000       0.602876        16.4051 
  51   0.0000       0.603447        16.4206 
  52   0.0000       0.657707        17.8971 
  53   0.0000       0.658123        17.9084 
  54   0.0000       0.697006        18.9665 
  55   0.0000       0.698188        18.9987 
  56   0.0000       0.701771        19.0962 
  57   0.0000       0.764227        20.7957 
  58   0.0000       0.861380        23.4393 
  59   0.0000       0.862037        23.4572 
  60   0.0000       0.869551        23.6617 
  61   0.0000       0.896930        24.4067 
  62   0.0000       1.026830        27.9415 
  63   0.0000       1.027519        27.9602 
  64   0.0000       1.061647        28.8889 
  65   0.0000       1.139911        31.0186 
  66   0.0000       1.140548        31.0359 
  67   0.0000       1.233850        33.5748 
  68   0.0000       1.234283        33.5865 
  69   0.0000       1.283904        34.9368 
  70   0.0000       1.284045        34.9406 
  71   0.0000       1.308050        35.5938 
  72   0.0000       1.308534        35.6070 
  73   0.0000       1.433107        38.9968 
  74   0.0000       1.740806        47.3697 
  75   0.0000       1.741535        47.3896 
  76   0.0000       1.795886        48.8685 
  77   0.0000       1.857860        50.5549 
  78   0.0000       1.858121        50.5620 
  79   0.0000       1.874800        51.0159 
  80   0.0000       1.875130        51.0249 
  81   0.0000       2.019177        54.9446 
  82   0.0000       2.019394        54.9505 
  83   0.0000       2.019747        54.9601 
  84   0.0000       2.049896        55.7805 
  85   0.0000       2.050078        55.7855 
  86   0.0000       2.124127        57.8004 
  87   0.0000       2.151643        58.5492 
  88   0.0000       2.211996        60.1915 
  89   0.0000       2.212002        60.1916 
  90   0.0000       2.309239        62.8376 
  91   0.0000       2.310603        62.8747 
  92   0.0000       2.311389        62.8961 
  93   0.0000       2.366207        64.3878 
  94   0.0000       2.471441        67.2513 
  95   0.0000       2.472214        67.2724 
  96   0.0000       2.513171        68.3869 
  97   0.0000       2.513388        68.3928 
  98   0.0000       2.523318        68.6630 
  99   0.0000       2.613638        71.1207 
 100   0.0000       2.640647        71.8556 
 101   0.0000       2.640755        71.8586 
 102   0.0000       2.640988        71.8649 
 103   0.0000       3.065018        83.4034 
 104   0.0000       3.067437        83.4692 
 105   0.0000       3.082658        83.8834 
 106   0.0000       3.083473        83.9056 
 107   0.0000       3.217822        87.5614 
 108   0.0000       3.335311        90.7584 
 109   0.0000       3.338204        90.8371 
 110   0.0000       3.339286        90.8666 
 111   0.0000       3.450582        93.8951 
 112   0.0000       3.452202        93.9392 
 113   0.0000       3.508603        95.4739 
 114   0.0000       3.620459        98.5177 
 115   0.0000       3.621574        98.5480 
 116   0.0000       3.683692       100.2383 
 117   0.0000       3.701846       100.7324 
 118   0.0000       3.799258       103.3831 
 119   0.0000       4.092849       111.3721 
 120   0.0000       4.093749       111.3966 
 121   0.0000       4.138364       112.6106 
 122   0.0000       4.815942       131.0484 
 123   0.0000       6.369979       173.3359 
 124   0.0000       6.384906       173.7421 
 125   0.0000       6.385551       173.7597 
 126   0.0000       6.614098       179.9788 
 127   0.0000       6.615170       180.0079 
 128   0.0000       6.619496       180.1256 
 129   0.0000       6.627195       180.3351 
 130   0.0000       6.630922       180.4366 
 131   0.0000       6.642941       180.7636 
 132   0.0000       6.643209       180.7709 
 133   0.0000       6.655180       181.0967 
 134   0.0000       6.658186       181.1784 
 135   0.0000       6.659191       181.2058 
 136   0.0000       6.661236       181.2615 
 137   0.0000       6.662798       181.3040 
 138   0.0000       6.666377       181.4013 
 139   0.0000       6.688884       182.0138 
 140   0.0000       6.690854       182.0674 
 141   0.0000       6.695054       182.1817 
 142   0.0000       6.698179       182.2667 
 143   0.0000       6.700137       182.3200 
 144   0.0000       6.706243       182.4862 
 145   0.0000       6.706956       182.5056 
 146   0.0000       6.720080       182.8627 
 147   0.0000       6.721965       182.9140 
 148   0.0000       6.726138       183.0275 
 149   0.0000       6.728304       183.0865 
 150   0.0000       6.767491       184.1528 
 151   0.0000       6.873984       187.0506 
 152   0.0000       6.874768       187.0719 
 153   0.0000       6.878789       187.1814 
 154   0.0000       6.923921       188.4095 
 155   0.0000       6.932996       188.6564 
 156   0.0000       6.934161       188.6881 
 157   0.0000       6.940233       188.8533 
 158   0.0000       7.776990       211.6227 
 159   0.0000       7.792537       212.0457 
 160   0.0000       7.793526       212.0726 
 161   0.0000       8.010267       217.9704 
 162   0.0000       8.054348       219.1699 
 163   0.0000       8.057058       219.2437 
 164   0.0000       8.059617       219.3133 
 165   0.0000       8.060542       219.3385 
 166   0.0000       8.157646       221.9808 
 167   0.0000       8.158950       222.0163 
 168   0.0000       8.178190       222.5399 
 169   0.0000       8.178532       222.5492 
 170   0.0000       8.223080       223.7614 
 171   0.0000       8.268002       224.9838 
 172   0.0000       8.272889       225.1167 
 173   0.0000       8.351927       227.2675 
 174   0.0000       8.403702       228.6764 
 175   0.0000       8.411442       228.8870 
 176   0.0000       8.412377       228.9124 
 177   0.0000       8.578031       233.4201 
 178   0.0000       8.582266       233.5353 
 179   0.0000       8.594229       233.8609 
 180   0.0000       8.640997       235.1335 
 181   0.0000       8.643284       235.1957 
 182   0.0000       8.686695       236.3770 
 183   0.0000       8.795712       239.3435 
 184   0.0000       8.797188       239.3837 
 185   0.0000       9.114490       248.0179 
 186   0.0000      15.808746       430.1778 
 187   0.0000      56.243012      1530.4502 
 188   0.0000      56.315700      1532.4281 
 189   0.0000      56.315965      1532.4353 
 190   0.0000      56.706306      1543.0570 
 191   0.0000      56.717118      1543.3513 

                    ********************************
                    * MULLIKEN POPULATION ANALYSIS *
                    ********************************

-----------------------
MULLIKEN ATOMIC CHARGES
-----------------------
   0 P :    0.949173
   1 F :   -0.234861
   2 F :   -0.160480
   3 F :   -0.234991
   4 F :   -0.159441
   5 F :   -0.159400
Sum of atomic charges:   -0.0000000

--------------------------------
MULLIKEN REDUCED ORBITAL CHARGES
--------------------------------
  0 P s       :     4.935034  s :     4.935034
      pz      :     2.599948  p :     7.838674
      px      :     2.598403
      py      :     2.640323
      dz2     :     0.208788  d :     1.035581
      dxz     :     0.192597
      dyz     :     0.196890
      dx2y2   :     0.244538
      dxy     :     0.192769
      f0      :     0.043762  f :     0.241537
      f+1     :     0.022567
      f-1     :     0.032475
      f+2     :     0.045116
      f-2     :     0.016054
      f+3     :     0.039870
      f-3     :     0.041693
  1 F s       :     3.910618  s :     3.910618
      pz      :     1.872171  p :     5.311505
      px      :     1.878276
      py      :     1.561058
      dz2     :     0.001653  d :     0.012326
      dxz     :     0.000270
      dyz     :     0.003071
      dx2y2   :     0.004457
      dxy     :     0.002875
      f0      :     0.000037  f :     0.000412
      f+1     :     0.000007
      f-1     :     0.000076
      f+2     :     0.000068
      f-2     :     0.000013
      f+3     :     0.000091
      f-3     :     0.000121
  2 F s       :     3.900291  s :     3.900291
      pz      :     1.828252  p :     5.245912
      px      :     1.527153
      py      :     1.890507
      dz2     :     0.001630  d :     0.013798
      dxz     :     0.003837
      dyz     :     0.000126
      dx2y2   :     0.004958
      dxy     :     0.003247
      f0      :     0.000042  f :     0.000480
      f+1     :     0.000072
      f-1     :     0.000007
      f+2     :     0.000084
      f-2     :     0.000005
      f+3     :     0.000156
      f-3     :     0.000113
  3 F s       :     3.910701  s :     3.910701
      pz      :     1.872232  p :     5.311558
      px      :     1.878409
      py      :     1.560918
      dz2     :     0.001655  d :     0.012321
      dxz     :     0.000266
      dyz     :     0.003072
      dx2y2   :     0.004457
      dxy     :     0.002871
      f0      :     0.000037  f :     0.000411
      f+1     :     0.000006
      f-1     :     0.000076
      f+2     :     0.000068
      f-2     :     0.000013
      f+3     :     0.000091
      f-3     :     0.000120
  4 F s       :     3.899099  s :     3.899099
      pz      :     1.600251  p :     5.246053
      px      :     1.759463
      py      :     1.886340
      dz2     :     0.004727  d :     0.013814
      dxz     :     0.004363
      dyz     :     0.002624
      dx2y2   :     0.001214
      dxy     :     0.000885
      f0      :     0.000121  f :     0.000475
      f+1     :     0.000135
      f-1     :     0.000068
      f+2     :     0.000072
      f-2     :     0.000054
      f+3     :     0.000014
      f-3     :     0.000011
  5 F s       :     3.899095  s :     3.899095
      pz      :     1.615291  p :     5.246020
      px      :     1.745214
      py      :     1.885516
      dz2     :     0.004437  d :     0.013809
      dxz     :     0.004415
      dyz     :     0.002491
      dx2y2   :     0.001421
      dxy     :     0.001046
      f0      :     0.000107  f :     0.000476
      f+1     :     0.000135
      f-1     :     0.000060
      f+2     :     0.000080
      f-2     :     0.000062
      f+3     :     0.000017
      f-3     :     0.000014


                     *******************************
                     * LOEWDIN POPULATION ANALYSIS *
                     *******************************

----------------------
LOEWDIN ATOMIC CHARGES
----------------------
   0 P :   -0.067608
   1 F :   -0.026075
   2 F :    0.039986
   3 F :   -0.026399
   4 F :    0.040072
   5 F :    0.040024

-------------------------------
LOEWDIN REDUCED ORBITAL CHARGES
-------------------------------
  0 P s       :     4.632365  s :     4.632365
      pz      :     2.645576  p :     7.973305
      px      :     2.644552
      py      :     2.683177
      dz2     :     0.387365  d :     1.764528
      dxz     :     0.349491
      dyz     :     0.280953
      dx2y2   :     0.481806
      dxy     :     0.264912
      f0      :     0.114174  f :     0.697409
      f+1     :     0.088338
      f-1     :     0.092368
      f+2     :     0.122429
      f-2     :     0.041700
      f+3     :     0.115946
      f-3     :     0.122454
  1 F s       :     3.700106  s :     3.700106
      pz      :     1.829812  p :     5.304339
      px      :     1.833493
      py      :     1.641034
      dz2     :     0.003304  d :     0.020880
      dxz     :     0.000356
      dyz     :     0.004095
      dx2y2   :     0.009594
      dxy     :     0.003531
      f0      :     0.000063  f :     0.000751
      f+1     :     0.000011
      f-1     :     0.000154
      f+2     :     0.000112
      f-2     :     0.000017
      f+3     :     0.000136
      f-3     :     0.000258
  2 F s       :     3.685926  s :     3.685926
      pz      :     1.775451  p :     5.250890
      px      :     1.633944
      py      :     1.841494
      dz2     :     0.003649  d :     0.022399
      dxz     :     0.003595
      dyz     :     0.000156
      dx2y2   :     0.010706
      dxy     :     0.004293
      f0      :     0.000052  f :     0.000800
      f+1     :     0.000178
      f-1     :     0.000014
      f+2     :     0.000091
      f-2     :     0.000010
      f+3     :     0.000297
      f-3     :     0.000159
  3 F s       :     3.700260  s :     3.700260
      pz      :     1.829919  p :     5.304521
      px      :     1.833613
      py      :     1.640989
      dz2     :     0.003314  d :     0.020868
      dxz     :     0.000338
      dyz     :     0.004095
      dx2y2   :     0.009596
      dxy     :     0.003525
      f0      :     0.000063  f :     0.000750
      f+1     :     0.000011
      f-1     :     0.000154
      f+2     :     0.000112
      f-2     :     0.000016
      f+3     :     0.000136
      f-3     :     0.000258
  4 F s       :     3.685882  s :     3.685882
      pz      :     1.668731  p :     5.250851
      px      :     1.742389
      py      :     1.839731
      dz2     :     0.007776  d :     0.022398
      dxz     :     0.008274
      dyz     :     0.003635
      dx2y2   :     0.001501
      dxy     :     0.001212
      f0      :     0.000160  f :     0.000798
      f+1     :     0.000307
      f-1     :     0.000101
      f+2     :     0.000108
      f-2     :     0.000089
      f+3     :     0.000017
      f-3     :     0.000015
  5 F s       :     3.685927  s :     3.685927
      pz      :     1.675676  p :     5.250852
      px      :     1.735800
      py      :     1.839376
      dz2     :     0.006775  d :     0.022398
      dxz     :     0.008876
      dyz     :     0.003478
      dx2y2   :     0.001818
      dxy     :     0.001451
      f0      :     0.000131  f :     0.000798
      f+1     :     0.000308
      f-1     :     0.000089
      f+2     :     0.000127
      f-2     :     0.000102
      f+3     :     0.000022
      f-3     :     0.000020


                      *****************************
                      * MAYER POPULATION ANALYSIS *
                      *****************************

  NA   - Mulliken gross atomic population
  ZA   - Total nuclear charge
  QA   - Mulliken gross atomic charge
  VA   - Mayer's total valence
  BVA  - Mayer's bonded valence
  FA   - Mayer's free valence

  ATOM       NA         ZA         QA         VA         BVA        FA
  0 P     14.0508    15.0000     0.9492     6.0000     6.0000    -0.0000
  1 F      9.2349     9.0000    -0.2349     1.2042     1.2042    -0.0000
  2 F      9.1605     9.0000    -0.1605     1.2469     1.2469    -0.0000
  3 F      9.2350     9.0000    -0.2350     1.2037     1.2037    -0.0000
  4 F      9.1594     9.0000    -0.1594     1.2485     1.2485    -0.0000
  5 F      9.1594     9.0000    -0.1594     1.2486     1.2486     0.0000

  Mayer bond orders larger than 0.1
B(  0-P ,  1-F ) :   1.1853 B(  0-P ,  2-F ) :   1.2087 B(  0-P ,  3-F ) :   1.1851 
B(  0-P ,  4-F ) :   1.2104 B(  0-P ,  5-F ) :   1.2105 

-------
TIMINGS
-------

Total SCF time: 0 days 0 hours 0 min 4 sec 

Total time                  ....       4.813 sec
Sum of individual times     ....       4.682 sec  ( 97.3%)

Fock matrix formation       ....       3.624 sec  ( 75.3%)
  Split-RI-J                ....       1.705 sec  ( 47.0% of F)
  XC integration            ....       1.849 sec  ( 51.0% of F)
    Basis function eval.    ....       0.695 sec  ( 37.6% of XC)
    Density eval.           ....       0.300 sec  ( 16.2% of XC)
    XC-Functional eval.     ....       0.109 sec  (  5.9% of XC)
    XC-Potential eval.      ....       0.652 sec  ( 35.3% of XC)
Diagonalization             ....       0.011 sec  (  0.2%)
Density matrix formation    ....       0.003 sec  (  0.1%)
Population analysis         ....       0.030 sec  (  0.6%)
Initial guess               ....       0.006 sec  (  0.1%)
Orbital Transformation      ....       0.000 sec  (  0.0%)
Orbital Orthonormalization  ....       0.004 sec  (  0.1%)
DIIS solution               ....       0.002 sec  (  0.0%)
SOSCF solution              ....       0.046 sec  (  1.0%)
Grid generation             ....       0.961 sec  ( 20.0%)

-------------------------   --------------------
FINAL SINGLE POINT ENERGY      -840.354626584164
-------------------------   --------------------

                                *** OPTIMIZATION RUN DONE ***

                            ***************************************
                            *     ORCA property calculations      *
                            ***************************************

                                    ---------------------
                                    Active property flags
                                    ---------------------
   (+) Dipole Moment


------------------------------------------------------------------------------
                       ORCA ELECTRIC PROPERTIES CALCULATION
------------------------------------------------------------------------------

Dipole Moment Calculation                       ... on
Quadrupole Moment Calculation                   ... off
Polarizability Calculation                      ... off
GBWName                                         ... opt.gbw
Electron density file                           ... opt.scfp.tmp
The origin for moment calculation is the CENTER OF MASS  = (-1.290093,  0.626358  0.091000)

-------------
DIPOLE MOMENT
-------------
                                X             Y             Z
Electronic contribution:      0.00130       0.00080       0.00027
Nuclear contribution   :      0.00018       0.00006      -0.00004
                        -----------------------------------------
Total Dipole Moment    :      0.00148       0.00087       0.00023
                        -----------------------------------------
Magnitude (a.u.)       :      0.00173
Magnitude (Debye)      :      0.00439


Timings for individual modules:

Sum of individual times         ...      362.066 sec (=   6.034 min)
GTO integral calculation        ...        6.919 sec (=   0.115 min)   1.9 %
SCF iterations                  ...      240.050 sec (=   4.001 min)  66.3 %
SCF Gradient evaluation         ...      114.302 sec (=   1.905 min)  31.6 %
Geometry relaxation             ...        0.795 sec (=   0.013 min)   0.2 %
                             ****ORCA TERMINATED NORMALLY****
TOTAL RUN TIME: 0 days 0 hours 6 minutes 2 seconds 830 msec
